----- GAMESS execution script 'rungms' -----
This job is running on host io002
under operating system Linux at Wed 16 Nov 2022 06:57:57 PM EST
Available scratch disk space (Kbyte units) at beginning of the job is
Filesystem       1K-blocks       Used   Available Use% Mounted on
/dev/sdc1      15378471580 3278917120 11318349060  23% /scratch
GAMESS temporary binary files will be written to /scratch/bsonghao
GAMESS supplementary output files will be written to /home/bsonghao/.gamess_ascii_files/267638
Copying input file nh3_diabatization_2d_at_mode_7_8_dist-0.3_-0.6.inp to your run's scratch directory...
cp nh3_diabatization_2d_at_mode_7_8_dist-0.3_-0.6.inp /scratch/bsonghao/nh3_diabatization_2d_at_mode_7_8_dist-0.3_-0.6.F05
unset echo
/home/bjb2chen/gamess/ddikick.x /home/bjb2chen/gamess/gamess.00.x nh3_diabatization_2d_at_mode_7_8_dist-0.3_-0.6 -ddi 1 1 io002 -scr /scratch/bsonghao

 Distributed Data Interface kickoff program.
 Initiating 1 compute processes on 1 nodes to run the following command:
 /home/bjb2chen/gamess/gamess.00.x nh3_diabatization_2d_at_mode_7_8_dist-0.3_-0.6 

          ******************************************************
          *         GAMESS VERSION = 02 AUG 2018 (R2)         *
          *             FROM IOWA STATE UNIVERSITY             *
          * M.W.SCHMIDT, K.K.BALDRIDGE, J.A.BOATZ, S.T.ELBERT, *
          *   M.S.GORDON, J.H.JENSEN, S.KOSEKI, N.MATSUNAGA,   *
          *          K.A.NGUYEN, S.J.SU, T.L.WINDUS,           *
          *       TOGETHER WITH M.DUPUIS, J.A.MONTGOMERY       *
          *         J.COMPUT.CHEM.  14, 1347-1363(1993)        *
          **************** 64 BIT LINUX VERSION ****************

  SINCE 1993, STUDENTS AND POSTDOCS WORKING AT IOWA STATE UNIVERSITY
  AND ALSO IN THEIR VARIOUS JOBS AFTER LEAVING ISU HAVE MADE IMPORTANT
  CONTRIBUTIONS TO THE CODE:
     IVANA ADAMOVIC, CHRISTINE AIKENS, YURI ALEXEEV, POOJA ARORA,
     ANDREY ASADCHEV, ROB BELL, PRADIPTA BANDYOPADHYAY, JONATHAN BENTZ,
     BRETT BODE, KURT BRORSEN, CALEB CARLIN, GALINA CHABAN, WEI CHEN,
     CHEOL HO CHOI, PAUL DAY, ALBERT DEFUSCO, NUWAN DESILVA, TIM DUDLEY,
     DMITRI FEDOROV, ALEX FINDLATER, GRAHAM FLETCHER, MARK FREITAG,
     KURT GLAESEMANN, ANASTASIA GUININA,
     DAN KEMP, GRANT MERRILL, NORIYUKI MINEZAWA, JONATHAN MULLIN,
     TAKESHI NAGATA, SEAN NEDD, HEATHER NETZLOFF, BOSILJKA NJEGIC, RYAN OLSON,
     MIKE PAK, BUU PHAM,
     SPENCER PRUITT, LUKE ROSKOP, JIM SHOEMAKER, LYUDMILA SLIPCHENKO,
     TONY SMITH, SAROM SOK LEANG, JIE SONG, TETSUYA TAKETSUGU, SIMON WEBB,
     PENG XU, SOOHAENG YOO, FEDERICO ZAHARIEV

  ADDITIONAL CODE HAS BEEN PROVIDED BY COLLABORATORS IN OTHER GROUPS:
     IOWA STATE UNIVERSITY:
          JOE IVANIC, AARON WEST, LAIMUTIS BYTAUTAS, KLAUS RUEDENBERG
     UNIVERSITY OF TOKYO: KIMIHIKO HIRAO, TAKAHITO NAKAJIMA,
          TAKAO TSUNEDA, MUNEAKI KAMIYA, SUSUMU YANAGISAWA,
          KIYOSHI YAGI, MAHITO CHIBA, SEIKEN TOKURA, NAOAKI KAWAKAMI
     UNIVERSITY OF AARHUS: FRANK JENSEN
     UNIVERSITY OF IOWA: VISVALDAS KAIRYS, HUI LI
     NATIONAL INST. OF STANDARDS AND TECHNOLOGY: WALT STEVENS, DAVID GARMER
     UNIVERSITY OF PISA: BENEDETTA MENNUCCI, JACOPO TOMASI
     UNIVERSITY OF MEMPHIS: HENRY KURTZ, PRAKASHAN KORAMBATH
     UNIVERSITY OF ALBERTA: TOBY ZENG, MARIUSZ KLOBUKOWSKI
     UNIVERSITY OF NEW ENGLAND: MARK SPACKMAN
     MIE UNIVERSITY: HIROAKI UMEDA
     NAT. INST. OF ADVANCED INDUSTRIAL SCIENCE AND TECHNOLOGY: KAZUO KITAURA
     MICHIGAN STATE UNIVERSITY:
          KAROL KOWALSKI, MARTA WLOCH, JEFFREY GOUR, JESSE LUTZ,
          WEI LI, JUN SHEN, J. EMILIANO DEUSTUA, PIOTR PIECUCH
     UNIVERSITY OF MINNESOTA:
          YINAN SHU
     UNIVERSITY OF SILESIA: MONIKA MUSIAL, STANISLAW KUCHARSKI
     FACULTES UNIVERSITAIRES NOTRE-DAME DE LA PAIX:
          OLIVIER QUINET, BENOIT CHAMPAGNE
     UNIVERSITY OF CALIFORNIA - SANTA BARBARA: BERNARD KIRTMAN
     INSTITUTE FOR MOLECULAR SCIENCE:
          KAZUYA ISHIMURA, MICHIO KATOUDA, AND SHIGERU NAGASE
     UNIVERSITY OF NOTRE DAME: ANNA POMOGAEVA, DAN CHIPMAN
     KYUSHU UNIVERSITY:
          HARUYUKI NAKANO,
          FENG LONG GU, JACEK KORCHOWIEC, MARCIN MAKOWSKI, AND YURIKO AOKI,
          HIROTOSHI MORI AND EISAKU MIYOSHI
     PENNSYLVANIA STATE UNIVERSITY:
          TZVETELIN IORDANOV, CHET SWALINA, JONATHAN SKONE,
          SHARON HAMMES-SCHIFFER
     WASEDA UNIVERSITY:
          MASATO KOBAYASHI, TOMOKO AKAMA, TSUGUKI TOUMA,
          TAKESHI YOSHIKAWA, YASUHIRO IKABATA, JUNJI SEINO,
          YUYA NAKAJIMA, HIROMI NAKAI
     NANJING UNIVERSITY: SHUHUA LI
     UNIVERSITY OF NEBRASKA:
          PEIFENG SU, DEJUN SI, NANDUN THELLAMUREGE, YALI WANG, HUI LI
     UNIVERSITY OF ZURICH: ROBERTO PEVERATI, KIM BALDRIDGE
     N. COPERNICUS UNIVERSITY AND JACKSON STATE UNIVERSITY:
          MARIA BARYSZ
     UNIVERSITY OF COPENHAGEN: Jimmy Kromann, CASPER STEINMANN
     TOKYO INSTITUTE OF TECHNOLOGY: HIROYA NAKATA
     NAGOYA UNIVERSITY: YOSHIO NISHIMOTO, STEPHAN IRLE
     MOSCOW STATE UNIVERSITY: VLADIMIR MIRONOV

 EXECUTION OF GAMESS BEGUN Wed Nov 16 18:57:57 2022

            ECHO OF THE FIRST FEW INPUT CARDS -
 INPUT CARD> $system kdiag=3 mwords=100 memddi=1000 parall=.t. $end                         
 INPUT CARD> $contrl runtyp=energy ispher=1 $end                                            
 INPUT CARD> $contrl icut=9 itol=20 inttyp=rysquad qmttol=1.0d-05 nosym=1 $end              
 INPUT CARD> $scf    npunch=2 conv=1.0d-06 dirscf=.t.      $end                             
 INPUT CARD> $contrl scftyp=mcscf  mult=2 maxit=200 icharg=1 mplevl=2 $end                  
 INPUT CARD> $guess  guess=moread norb=29 purify=.t. $end                                   
 INPUT CARD> $basis  gbasis=ccd $end                                                        
 INPUT CARD> $mcscf  cistep=gmcci fullnr=.t. finci=mos                                      
 INPUT CARD>         acurcy=1.d-6 maxit=100 $end                                            
 INPUT CARD> $trans  dirtrf=.t. $end                                                        
 INPUT CARD> $mrmp   mrpt=gmcpt rdvecs=.f. $end                                             
 INPUT CARD> $gmcpt  nmofzc=0 nmodoc=1 nmoact=7 nelact=7 stsym(1)=A                         
 INPUT CARD>         reftyp=ormas nspace=1 mstart(1)=2 mine(1)=7 maxe(1)=7                  
 INPUT CARD>         kstate(1)=1,1,1                                                        
 INPUT CARD>         wstate(1)=1,1,1                                                        
 INPUT CARD>         iwgt=0 thrwgt=-1.0 krot=.f. kszdoe=.f. knospn=.f.                      
 INPUT CARD>         thrde=-1.0 edshft=0.02 $end                                            
 INPUT CARD> $data                                                                          
 INPUT CARD> NH3+ 3 states calculation at NH3 structure.                                    
 INPUT CARD> c1                                                                             
 INPUT CARD>N 7.0 0.03737350800000001 0.018686709000000003 -0.1693803602                    
 INPUT CARD>H 1.0 -0.885444331 0.5563283218 0.2670686361                                    
 INPUT CARD>H 1.0 -0.656168368 -0.5970592378 0.40423307310000006                            
 INPUT CARD>H 1.0 1.022297792 -0.21892724400000002 0.0980740131                             
 INPUT CARD>$end                                                                            
 INPUT CARD>--- OPTIMIZED RHF      MO-S --- GENERATED AT Mon Nov 14 16:47:08 2022           
 INPUT CARD>E=      -56.3825050291, E(NUC)=   11.8429239490                                 
 INPUT CARD> $VEC                                                                           
 INPUT CARD> 1  1-1.00134066E+00-2.25158504E-03 3.44925845E-03 0.00000000E+00 0.00000000E+00
 INPUT CARD> 1  2-2.13170927E-03 0.00000000E+00 0.00000000E+00 6.57129898E-04-6.87950443E-05
 INPUT CARD> 1  3-6.87950443E-05 1.37590089E-04 0.00000000E+00 0.00000000E+00 0.00000000E+00
 INPUT CARD> 1  4 3.25502815E-04-4.84772356E-04 3.62525460E-04-6.27912517E-04-3.45956485E-04
 INPUT CARD> 1  5 3.25502815E-04-4.84772356E-04 3.62525460E-04 6.27912517E-04-3.45956485E-04
 INPUT CARD> 1  6 3.25502815E-04-4.84772356E-04-7.25050921E-04 0.00000000E+00-3.45956485E-04
 INPUT CARD> 2  1 1.31286642E-02-4.05911371E-01-2.82090992E-01 0.00000000E+00 0.00000000E+00
 INPUT CARD> 2  2-7.71489043E-02 0.00000000E+00 0.00000000E+00 9.73717494E-03 6.62450916E-04
 INPUT CARD> 2  3 6.62450916E-04-1.32490183E-03 0.00000000E+00 0.00000000E+00 0.00000000E+00
 INPUT CARD> 2  4-1.96090317E-01-1.96656153E-02-1.74855877E-02 3.02859263E-02 8.68214399E-03
 INPUT CARD> 2  5-1.96090317E-01-1.96656153E-02-1.74855877E-02-3.02859263E-02 8.68214399E-03
 INPUT CARD> 2  6-1.96090317E-01-1.96656153E-02 3.49711754E-02 0.00000000E+00 8.68214399E-03
 INPUT CARD> 3  1 0.00000000E+00 0.00000000E+00 0.00000000E+00 4.48608762E-01 0.00000000E+00
 INPUT CARD> 3  2 0.00000000E+00 2.18692520E-01 0.00000000E+00 0.00000000E+00 1.30198027E-02
 INPUT CARD> 3  3-1.30198027E-02 0.00000000E+00 0.00000000E+00 2.71832968E-02 0.00000000E+00
 INPUT CARD> 3  4-1.85332726E-01-7.03958951E-02 8.47929477E-03 1.95242443E-02 8.32835058E-03
 INPUT CARD> 3  5-1.85332726E-01-7.03958951E-02 8.47929477E-03-1.95242443E-02 8.32835058E-03
 INPUT CARD> 3  6 3.70665453E-01 1.40791790E-01-2.53376884E-02 0.00000000E+00-1.66567012E-02
 INPUT CARD> 4  1 0.00000000E+00 0.00000000E+00 0.00000000E+00 0.00000000E+00 4.48608762E-01
 INPUT CARD> 4  2 0.00000000E+00 0.00000000E+00 2.18692520E-01 0.00000000E+00 0.00000000E+00
 INPUT CARD> 4  3 0.00000000E+00 0.00000000E+00-1.50339731E-02 0.00000000E+00 2.71832968E-02
 INPUT CARD> 4  4 3.21005698E-01 1.21929267E-01 1.95242443E-02-1.40653607E-02-1.44251263E-02
  100000000 WORDS OF MEMORY AVAILABLE

     BASIS OPTIONS
     -------------
     GBASIS=CCD          IGAUSS=       0      POLAR=NONE    
     NDFUNC=       0     NFFUNC=       0     DIFFSP=       F
     NPFUNC=       0      DIFFS=       F     BASNAM=        


     RUN TITLE
     ---------
  NH3+ 3 states calculation at NH3 structure.                                    

 THE POINT GROUP OF THE MOLECULE IS C1      
 THE ORDER OF THE PRINCIPAL AXIS IS     0

 ATOM      ATOMIC                      COORDINATES (BOHR)
           CHARGE         X                   Y                   Z
 N           7.0     0.0706256893        0.0353127596       -0.3200824685
 H           1.0    -1.6732471630        1.0513080874        0.5046865421
 H           1.0    -1.2399784173       -1.1282783579        0.7638897433
 H           1.0     1.9318627047       -0.4137125024        0.1853330113

          INTERNUCLEAR DISTANCES (ANGS.)
          ------------------------------

                1 N          2 H          3 H          4 H     

   1 N       0.0000000    1.1537500 *  1.0904934 *  1.0478874 *
   2 H       1.1537500 *  0.0000000    1.1839275 *  2.0661705 *
   3 H       1.0904934 *  1.1839275 *  0.0000000    1.7475600 *
   4 H       1.0478874 *  2.0661705 *  1.7475600 *  0.0000000  

  * ... LESS THAN  3.000


     ATOMIC BASIS SET
     ----------------
 THE CONTRACTED PRIMITIVE FUNCTIONS HAVE BEEN UNNORMALIZED
 THE CONTRACTED BASIS FUNCTIONS ARE NOW NORMALIZED TO UNITY

  SHELL TYPE  PRIMITIVE        EXPONENT          CONTRACTION COEFFICIENT(S)

 N         

      1   S       1          9046.0000000    0.000699617413
      1   S       2          1357.0000000    0.005386054630
      1   S       3           309.3000000    0.027391021189
      1   S       4            87.7300000    0.103150591982
      1   S       5            28.5600000    0.278570663317
      1   S       6            10.2100000    0.448294849454
      1   S       7             3.8380000    0.278085928395
      1   S       8             0.7466000    0.015431561233

      2   S       9          9046.0000000   -0.000304990096
      2   S      10          1357.0000000   -0.002408026379
      2   S      11           309.3000000   -0.011944448725
      2   S      12            87.7300000   -0.048925992909
      2   S      13            28.5600000   -0.134472724725
      2   S      14            10.2100000   -0.315112577700
      2   S      15             3.8380000   -0.242857832550
      2   S      16             0.7466000    1.094382206854

      3   S      17             0.2248000    1.000000000000

      4   P      18            13.5500000    0.058905676772
      4   P      19             2.9170000    0.320461106714
      4   P      20             0.7973000    0.753042061792

      5   P      21             0.2185000    1.000000000000

      6   D      22             0.8170000    1.000000000000

 H         

      7   S      23            13.0100000    0.033498726390
      7   S      24             1.9620000    0.234800801174
      7   S      25             0.4446000    0.813682957883

      8   S      26             0.1220000    1.000000000000

      9   P      27             0.7270000    1.000000000000

 H         

     10   S      28            13.0100000    0.033498726390
     10   S      29             1.9620000    0.234800801174
     10   S      30             0.4446000    0.813682957883

     11   S      31             0.1220000    1.000000000000

     12   P      32             0.7270000    1.000000000000

 H         

     13   S      33            13.0100000    0.033498726390
     13   S      34             1.9620000    0.234800801174
     13   S      35             0.4446000    0.813682957883

     14   S      36             0.1220000    1.000000000000

     15   P      37             0.7270000    1.000000000000

 TOTAL NUMBER OF BASIS SET SHELLS             =   15
 NUMBER OF CARTESIAN GAUSSIAN BASIS FUNCTIONS =   30
 NOTE: THIS RUN WILL RESTRICT THE MO VARIATION SPACE TO SPHERICAL HARMONICS.
 THE NUMBER OF ORBITALS KEPT IN THE VARIATIONAL SPACE WILL BE PRINTED LATER.
 NUMBER OF ELECTRONS                          =    9
 CHARGE OF MOLECULE                           =    1
 SPIN MULTIPLICITY                            =    2
 NUMBER OF OCCUPIED ORBITALS (ALPHA)          =    5
 NUMBER OF OCCUPIED ORBITALS (BETA )          =    4
 TOTAL NUMBER OF ATOMS                        =    4
 THE NUCLEAR REPULSION ENERGY IS       11.1483104686

     $CONTRL OPTIONS
     ---------------
 SCFTYP=MCSCF        RUNTYP=ENERGY       EXETYP=RUN     
 MPLEVL=       2     CITYP =NONE         CCTYP =NONE         VBTYP =NONE    
 DFTTYP=NONE         TDDFT =NONE    
 MULT  =       2     ICHARG=       1     NZVAR =       0     COORD =UNIQUE  
 PP    =NONE         RELWFN=NONE         LOCAL =NONE         NUMGRD=       F
 ISPHER=       1     NOSYM =       1     MAXIT =     200     UNITS =ANGS    
 PLTORB=       F     MOLPLT=       F     AIMPAC=       F     FRIEND=        
 NPRINT=       7     IREST =       0     GEOM  =INPUT   
 NORMF =       0     NORMP =       0     ITOL  =      20     ICUT  =       9
 INTTYP=RYSQUAD      GRDTYP=BEST         QMTTOL= 1.0E-05

     $SYSTEM OPTIONS
     ---------------
  REPLICATED MEMORY=   100000000 WORDS (ON EVERY NODE).
 DISTRIBUTED MEMDDI=        1000 MILLION WORDS IN AGGREGATE,
 MEMDDI DISTRIBUTED OVER   1 PROCESSORS IS  1000000000 WORDS/PROCESSOR.
 TOTAL MEMORY REQUESTED ON EACH PROCESSOR=  1100000000 WORDS.
 TIMLIM=      525600.00 MINUTES, OR     365.0 DAYS.
 PARALL= T  BALTYP=  DLB     KDIAG=    3  COREFL= F
 MXSEQ2=     300 MXSEQ3=     150  mem10=         0

          ----------------
          PROPERTIES INPUT
          ----------------

     MOMENTS            FIELD           POTENTIAL          DENSITY
 IEMOM =       1   IEFLD =       0   IEPOT =       0   IEDEN =       0
 WHERE =COMASS     WHERE =NUCLEI     WHERE =NUCLEI     WHERE =NUCLEI  
 OUTPUT=BOTH       OUTPUT=BOTH       OUTPUT=BOTH       OUTPUT=BOTH    
 IEMINT=       0   IEFINT=       0                     IEDINT=       0
                                                       MORB  =       0

     -------------------------------
     INTEGRAL TRANSFORMATION OPTIONS
     -------------------------------
     NWORD  =            0
     CUTOFF = 1.0E-09     MPTRAN =       0
     DIRTRF =       T     AOINTS =DUP     

          ----------------------
          MCSCF INPUT PARAMETERS
          ----------------------
 CONVERGER SELECTION: FOCAS = F  SOSCF = F  FULLNR = T  QUD = F  JACOBI = F
 SECULAR EQUATION METHOD CISTEP = GMCCI   
 --- GENERAL INPUT OPTIONS:
 MAXIT =     100  MICIT =       1  ACURCY= 1.000E-06
 DAMP  =   0.000  CANONC=       T  ENGTOL= 1.000E-10
 EKT   =       F  NPUNCH=       2  NWORD =         0
 REGENERATE CI AFTER CONVERGENCE = NONE    
 DIABATIZATION AFTER CONVERGENCE =        F
 --- INPUT FOR FULLNR CONVERGER:
 METHOD=DM2       FORS  =       F  DROPC =       T
 LINSER=       F  FCORE =       F  NORB  =      30

          ----------------------
          INTEGRAL INPUT OPTIONS
          ----------------------
 NOPK  =       1 NORDER=       0 SCHWRZ=       T

 ------------------------------------------
 MULTIREFERENCE PERTURBATION THEORY CONTROL
 ------------------------------------------
 MRPT=GMCPT    READ CONVERGED MCSCF VECTORS= F


     ------------------------------------------
     THE POINT GROUP IS C1 , NAXIS= 1, ORDER= 1
     ------------------------------------------

 -- VARIATIONAL SPACE WILL BE RESTRICTED TO PURE SPHERICAL HARMONICS ONLY --
 AFTER EXCLUDING CONTAMINANT COMBINATIONS FROM THE CARTESIAN GAUSSIAN BASIS
 SET, THE NUMBER OF SPHERICAL HARMONICS KEPT IN THE VARIATION SPACE IS   29

     DIMENSIONS OF THE SYMMETRY SUBSPACES ARE
 A   =   29

 ..... DONE SETTING UP THE RUN .....
 CPU     0: STEP CPU TIME=     0.04 TOTAL CPU TIME=          0.0 (      0.0 MIN)
 TOTAL WALL CLOCK TIME=          0.0 SECONDS, CPU UTILIZATION IS    80.00%

          ********************
          1 ELECTRON INTEGRALS
          ********************
 TIME TO DO   DIPOLE INTEGRALS=      0.00
 ...... END OF ONE-ELECTRON INTEGRALS ......
 CPU     0: STEP CPU TIME=     0.00 TOTAL CPU TIME=          0.0 (      0.0 MIN)
 TOTAL WALL CLOCK TIME=          0.0 SECONDS, CPU UTILIZATION IS    80.00%

          -------------
          GUESS OPTIONS
          -------------
          GUESS =MOREAD            NORB  =      29          NORDER=       0
          MIX   =       F          PRTMO =       F          PUNMO =       F
          TOLZ  = 1.0E-08          TOLE  = 1.0E-05
          SYMDEN=       F          PURIFY=       T

 INITIAL GUESS ORBITALS GENERATED BY MOREAD   ROUTINE.

 STATISTICS FOR GENERATION OF SYMMETRY ORBITAL -Q- MATRIX
 NUMBER OF CARTESIAN ATOMIC ORBITALS=         30
 NUMBER OF SPHERICAL CONTAMINANTS DROPPED=     1
 NUMBER OF LINEARLY DEPENDENT MOS DROPPED=     0
 TOTAL NUMBER OF MOS IN VARIATION SPACE=      29
 ORBITAL PURIFICATION WILL OCCUR

 SYMMETRIES FOR INITIAL GUESS ORBITALS FOLLOW.   BOTH SET(S).
     5 ORBITALS ARE OCCUPIED (    1 CORE ORBITALS).
     1=A        2=A        3=A        4=A        5=A        6=A        7=A   
     8=A        9=A       10=A       11=A       12=A       13=A       14=A   
    15=A       16=A       17=A       18=A       19=A       20=A       21=A   
    22=A       23=A       24=A       25=A       26=A       27=A       28=A   
    29=A   
 ...... END OF INITIAL ORBITAL SELECTION ......
 CPU     0: STEP CPU TIME=     0.01 TOTAL CPU TIME=          0.0 (      0.0 MIN)
 TOTAL WALL CLOCK TIME=          0.0 SECONDS, CPU UTILIZATION IS   100.00%

                    ----------------------
                    AO INTEGRAL TECHNOLOGY
                    ----------------------
     S,P,L SHELL ROTATED AXIS INTEGRALS, REPROGRAMMED BY
        KAZUYA ISHIMURA (IMS) AND JOSE SIERRA (SYNSTAR).
     S,P,D,L SHELL ROTATED AXIS INTEGRALS PROGRAMMED BY
        KAZUYA ISHIMURA (INSTITUTE FOR MOLECULAR SCIENCE).
     S,P,D,F,G SHELL TO TOTAL QUARTET ANGULAR MOMENTUM SUM 5,
        ERIC PROGRAM BY GRAHAM FLETCHER (ELORET AND NASA ADVANCED
        SUPERCOMPUTING DIVISION, AMES RESEARCH CENTER).
     S,P,D,F,G,L SHELL GENERAL RYS QUADRATURE PROGRAMMED BY
        MICHEL DUPUIS (PACIFIC NORTHWEST NATIONAL LABORATORY).

          --------------------
          2 ELECTRON INTEGRALS
          --------------------

 DIRECT SCF METHOD SKIPS INTEGRAL STORAGE ON DISK.
 DIRECT TRANSFORMATION SKIPS AO INTEGRAL STORAGE ON DISK.
  ...... END OF TWO-ELECTRON INTEGRALS .....
 STEP CPU TIME =     0.02 TOTAL CPU TIME =          0.1 (      0.0 MIN)
 TOTAL WALL CLOCK TIME=          0.1 SECONDS, CPU UTILIZATION IS    87.50%
 DDI: Creating Array [0] - 900 x 36 = 32400 words.
 DDI: Creating Array [1] - 21 x 288 = 6048 words.
 DDI: Creating Array [2] - 36 x 36 = 1296 words.
 DDI: Creating Array [3] - 465 x 36 = 16740 words.

          -----------------
          MCSCF CALCULATION
          -----------------

 ----- NUCLEAR ENERGY ----- =        11.1483104686

     -------------------------------------------------
     GMC-PT/GMC-QDPT or general MCSCF input parameters
     -------------------------------------------------
 # of frozen core orbs. =         0 ->         0
 # of doubly occ. orbs. =         1
 # of active      orbs. =         7
 # of virtual     orbs. =        21
 # of active electrons  =         7
 # of states in CI      =         3
 Highest state in CI    =         3
 kstate =  1 1 1
 avecoe =  0.333 0.333 0.333
 State symmetry           = A           
 Assigned symmetry number = 1

 <<<Act. MO sym.: 1111111

 <<<Division of 1-ext.:  0
 <<<Division of 2-ext.:  0

 *** Reference space

 Reference type: ORMAS (= Occupation restricted multiple active space)
 # of orbitals          =  7
 # of minimum electrons =  7
 # of maximum electrons =  7
 State symmetry    =    1 (input)
 2*Sz              =    1 (input)
 Spin multiplicity =    2 (input)
 Dimension of reference space =      1225  (from      3432 walks)

 Dimension of reference space =      1225  (from      1225 walks)

 <<<Ionized spaces for Ref-CI:
      0:         1225 /   -1-0:         1960 /  0-1-0:         2891

 EVALUATING EXCHANGE INTEGRALS FOR DIRECT INTEGRAL TRANSFORMATION
 SCHWARZ INEQUALITY OVERHEAD:       465 INTEGRALS, T=        0.00

     --------------------------------------------
     PARTIAL TWO ELECTRON INTEGRAL TRANSFORMATION
     --------------------------------------------

 NUMBER OF CORE MOLECULAR ORBITALS     =    1
 NUMBER OF OCCUPIED MOLECULAR ORBITALS =    8
 TOTAL NUMBER OF MOLECULAR ORBITALS    =   29
 TOTAL NUMBER OF ATOMIC ORBITALS       =   30
 THRESHOLD FOR KEEPING TRANSFORMED 2E- INTEGRALS = 1.000E-09

 -------------------------------     ------------------------------
 DISTRIBUTED DATA TRANSFORMATION     PROGRAM WRITTEN BY G. FLETCHER
 -------------------------------     ------------------------------

 THE DISTRIBUTED MEMORY REQUIRED FOR THIS STEP IS MEMDDI=         1 MWORDS
 CREATING DISTRIBUTED STORAGE FOR [VIR OCC|VIR OCC] INTEGRALS
 CREATING DISTRIBUTED STORAGE FOR [VIR OCC|OCC OCC] INTEGRALS
 CREATING DISTRIBUTED STORAGE FOR [OCC OCC|OCC OCC] INTEGRALS
 CREATING DISTRIBUTED STORAGE FOR [VIR VIR|OCC OCC] INTEGRALS
 FOR    1 PROCESSORS, THE REPLICATED MEMORY NEEDED IS       73700 WORDS.
 SCHWARZ INEQUALITY OVERHEAD:       465 INTEGRALS, T=        0.01

      DIRECT 4-INDEX TRANSFORMATION 
      SCHWARZ INEQUALITY TEST SKIPPED          0 INTEGRAL BLOCKS
 ----- FROZEN CORE ENERGY =       -47.6298096453
 ... END OF INTEGRAL TRANSFORMATION ...
 CPU     0: STEP CPU TIME=     0.22 TOTAL CPU TIME=          0.3 (      0.0 MIN)
 TOTAL WALL CLOCK TIME=          0.3 SECONDS, CPU UTILIZATION IS    96.67%

     --------------------------------     -----------------------------
     MCHF NEWTON-RAPHSON OPTIMIZATION     CODE WRITTEN BY MICHEL DUPUIS
     --------------------------------     -----------------------------
     PARALLEL VERSION WRITTEN BY G. FLETCHER (ELORET)
     NASA ADVANCED SUPERCOMPUTING DIVISION, AMES RESEARCH CENTER

 NUMBER OF INDEPENDENT ORBITAL ROTATION PARAMETERS =   175
 ..... DONE SOLVING NEWTON-RAPHSON EQUATIONS .....
 CPU     0: STEP CPU TIME=     0.81 TOTAL CPU TIME=          1.1 (      0.0 MIN)
 TOTAL WALL CLOCK TIME=          1.1 SECONDS, CPU UTILIZATION IS    98.21%
 ..... DONE WITH NTN-RPH ORBITAL ROTATIONS ..... 
 CPU     0: STEP CPU TIME=     0.00 TOTAL CPU TIME=          1.1 (      0.0 MIN)
 TOTAL WALL CLOCK TIME=          1.1 SECONDS, CPU UTILIZATION IS    98.21%
 MAXIMUM MEMORY USED BY NTN-RPH CODE WAS     57645 WORDS.

 ITER     TOTAL ENERGY      DEL(E)  LAGRANGIAN ASYMMETRY   SQCDF  MICIT   DAMP
   1      -55.602437723 -0.602437723  0.127933   10    4 1.090E-01  1   0.0000
   2      -55.657064383 -0.054626660  0.020093   12    5 4.582E-01  1   0.0000
   3      -55.692976903 -0.035912520  0.013713   11    6 2.323E-01  1   0.0199
   4      -55.709206559 -0.016229655  0.004730   11    6 4.705E-02  1   0.0057
   5      -55.711441944 -0.002235385  0.000756   14    5 1.350E-03  1   0.0000
   6      -55.711510790 -0.000068846  0.000323   14    5 1.188E-04  1   0.0000
   7      -55.711518464 -0.000007674  0.000151   22    5 2.328E-05  1   0.0000
   8      -55.711520049 -0.000001585  0.000076   22    5 5.624E-06  1   0.0000
   9      -55.711520437 -0.000000388  0.000041   22    5 1.546E-06  1   0.0000
  10      -55.711520543 -0.000000106  0.000022   22    5 4.666E-07  1   0.0000
  11      -55.711520575 -0.000000031  0.000013   22    5 1.504E-07  1   0.0000
  12      -55.711520585 -0.000000010  0.000007   22    5 5.087E-08  1   0.0000
  13      -55.711520588 -0.000000003  0.000004   22    5 1.784E-08  1   0.0000
  14      -55.711520589 -0.000000001  0.000002   22    5 6.427E-09  1   0.0000
  15      -55.711520589 -0.000000000  0.000001   12    7 2.369E-09  1   0.0000
  16      -55.711520590 -0.000000000  0.000001   12    7 8.783E-10  1   0.0000

          --------------------
          LAGRANGIAN CONVERGED
          --------------------

 FINAL MCSCF ENERGY IS      -55.7115205896 AFTER  16 ITERATIONS

 -MCCI- BASED ON OPTIMIZED ORBITALS
 ----------------------------------

 PLEASE NOTE: IF THE ACTIVE ORBITALS ARE CANONICALIZED BELOW,
 THE FOLLOWING CI EXPANSION COEFFICIENTS AND THE DENSITY DO NOT
 CORRESPOND TO THE PRINTED ORBITALS.  THE PRINTED EXPANSIONS MATCH
 THE ORBITALS USED DURING THE LAST ITERATION.  IF YOU WISH TO SEE
 CI EXPANSIONS BASED ON THE CANONICAL (OR NATURAL) ORBITALS, YOU
 MUST RUN A CI CALCULATION WITH THAT ORBITAL CHOICE READ IN $VEC.

 Averaged energy =     -55.711520590

 State #    1  Energy =     -55.847723219  S =  0.500

      Det      Coef    Occupancy (Ignoring core)
      ---      ----    --------- --------- -----
        1    0.912021  11110001110000
        5   -0.069976  01111001110000
        8   -0.131049  10110101110000
       17   -0.135920  11010011110000
       36   -0.219678  11110001101000
       71    0.125118  11110001011000
      211    0.052178  11110000110100
      386    0.107727  11110001010010
      701    0.094179  11110001100001
      717    0.074413  11010011100001

 State #    2  Energy =     -55.737580610  S =  0.500

      Det      Coef    Occupancy (Ignoring core)
      ---      ----    --------- --------- -----
        1    0.222878  11110001110000
       36    0.929266  11110001101000
       40   -0.068435  01111001101000
       43   -0.103245  10110101101000
       52   -0.099914  11010011101000
       71   -0.060962  11110001011000
      281    0.054380  11110000101100
      456    0.095755  11110001001010
      463    0.050752  10110101001010
      701    0.050371  11110001100001

 State #    3  Energy =     -55.549257939  S =  0.500

      Det      Coef    Occupancy (Ignoring core)
      ---      ----    --------- --------- -----
        1    0.106558  11110001110000
       36   -0.092629  11110001101000
       71   -0.949879  11110001011000
       78    0.066969  10110101011000
       87    0.083612  11010011011000
      122   -0.050222  11010010111000
      316   -0.078950  11110000011100
      806    0.102992  11110001001001
      822    0.082416  11010011001001

 DENSITY MATRIX OVER ACTIVE MO-S

             1           2           3           4           5

    1    1.9738677
    2   -0.0111770   1.6344949
    3   -0.0170761  -0.0018083   1.6225682
    4    0.0001431  -0.0014128  -0.0049536   1.6520582
    5    0.1078041   0.0350960   0.0462089   0.0096980   0.0346642
    6    0.0076198  -0.1548557  -0.0141658  -0.0349437  -0.0021892
    7    0.0097900   0.0001666   0.1563226   0.0433142   0.0089814

             6           7

    6    0.0354993
    7   -0.0042595   0.0468475

 FORMING THE "STANDARD FOCK OPERATOR" IN DIRECT AO INTEGRAL MODE...
 ONLY THE    1 CORE AND   21 VIRTUAL ORBITALS WILL BE CANONICALIZED

          ----------------------
          MCSCF NATURAL ORBITALS
          ----------------------

                      1          2          3          4          5
                  -15.9832     1.9808     1.6550     1.6489     1.6389
                     A          A          A          A          A   
    1  N  1  S    1.001109   0.008833  -0.008891   0.003678   0.002505
    2  N  1  S   -0.001907   0.434466  -0.141451   0.127405   0.045711
    3  N  1  S   -0.006282   0.326593  -0.235539   0.173327   0.070635
    4  N  1  X    0.000143  -0.028253   0.238939   0.404606   0.017292
    5  N  1  Y   -0.000117  -0.030619   0.028552  -0.007690   0.543224
    6  N  1  Z    0.001141   0.086632   0.543785  -0.217090   0.008638
    7  N  1  X    0.000047  -0.005735   0.121379   0.129400   0.017426
    8  N  1  Y   -0.000006  -0.000633   0.038979   0.002748   0.307757
    9  N  1  Z   -0.000548   0.015759   0.367269  -0.122222   0.027063
   10  N  1 XX    0.000422   0.003538  -0.008736   0.007521   0.004853
   11  N  1 YY   -0.000228  -0.003418  -0.012445   0.002099  -0.005177
   12  N  1 ZZ   -0.000194  -0.000121   0.021181  -0.009620   0.000324
   13  N  1 XY   -0.000114  -0.001224  -0.002610  -0.005883  -0.013091
   14  N  1 XZ   -0.000066  -0.003159   0.007109   0.019416   0.001249
   15  N  1 YZ   -0.000098  -0.000759  -0.002055   0.002022   0.023948
   16  H  2  S   -0.001442   0.167880   0.010322  -0.251205   0.270341
   17  H  2  S    0.000338  -0.000763   0.019085  -0.035016   0.097081
   18  H  2  X   -0.000626   0.024594   0.004604  -0.017317   0.030104
   19  H  2  Y    0.000422  -0.016499   0.000393   0.026485  -0.000813
   20  H  2  Z    0.000382  -0.007265   0.023489   0.001613  -0.009837
   21  H  3  S   -0.001706   0.206879   0.044736  -0.258024  -0.286996
   22  H  3  S    0.000274   0.008061   0.020370  -0.040240  -0.101045
   23  H  3  X   -0.000607   0.024343   0.011866  -0.001832  -0.022565
   24  H  3  Y   -0.000582   0.023321   0.009395  -0.028249  -0.004607
   25  H  3  Z    0.000509  -0.015917   0.021752   0.006067   0.019114
   26  H  4  S   -0.001893   0.168321   0.232933   0.297434  -0.029950
   27  H  4  S    0.000651  -0.000989   0.041940   0.031114   0.006625
   28  H  4  X    0.001003  -0.033036  -0.024724  -0.030268   0.011074
   29  H  4  Y   -0.000210   0.005034   0.008346   0.010808   0.017882
   30  H  4  Z    0.000324  -0.002779   0.014276  -0.018126   0.000950

                      6          7          8
                    0.0324     0.0252     0.0188
                     A          A          A   
    1  N  1  S   -0.111711  -0.129400   0.132859
    2  N  1  S   -0.383579  -0.476082   0.396483
    3  N  1  S   -0.032966  -0.212153  -0.014353
    4  N  1  X   -0.026335   0.424146   0.819033
    5  N  1  Y   -0.654687   0.350303  -0.287939
    6  N  1  Z   -0.223786  -0.564553   0.186355
    7  N  1  X    0.021855   0.101108   0.083274
    8  N  1  Y    0.062408   0.011018  -0.021906
    9  N  1  Z    0.042483   0.027550  -0.075896
   10  N  1 XX    0.041397   0.028123   0.002348
   11  N  1 YY   -0.038025  -0.029968  -0.016885
   12  N  1 ZZ   -0.003372   0.001846   0.014537
   13  N  1 XY   -0.051866   0.014784   0.025986
   14  N  1 XZ   -0.014424  -0.043280  -0.035304
   15  N  1 YZ    0.009466  -0.019719   0.026219
   16  H  2  S    0.694655   0.237284   0.305848
   17  H  2  S    0.199712  -0.003488   0.097766
   18  H  2  X    0.064594   0.006530   0.009132
   19  H  2  Y   -0.022659  -0.043266  -0.024117
   20  H  2  Z    0.000251   0.029163   0.007172
   21  H  3  S   -0.359521   0.755856  -0.015574
   22  H  3  S   -0.161895   0.157734  -0.016458
   23  H  3  X   -0.023192   0.022891  -0.037925
   24  H  3  Y    0.008694   0.063063   0.012121
   25  H  3  Z    0.024838   0.001099   0.004324
   26  H  4  S    0.304809   0.141062  -0.807934
   27  H  4  S    0.046929  -0.007954  -0.150095
   28  H  4  X   -0.026326  -0.026942   0.081562
   29  H  4  Y    0.017784   0.002037  -0.015794
   30  H  4  Z   -0.002186   0.004033  -0.025170

          ------------------------
          MCSCF OPTIMIZED ORBITALS
          ------------------------

                      1          2          3          4          5
                  -15.9832     0.0000     0.0000     0.0000     0.0000
                     A          A          A          A          A   
    1  N  1  S    1.001109  -0.001937  -0.012796  -0.005217  -0.012792
    2  N  1  S   -0.001907   0.399324   0.011291   0.006217  -0.188313
    3  N  1  S   -0.006282   0.320859   0.059961   0.063003  -0.280786
    4  N  1  X    0.000143  -0.005320   0.378238   0.023250   0.041677
    5  N  1  Y   -0.000117  -0.012688  -0.000838   0.465664   0.014269
    6  N  1  Z    0.001141   0.050946  -0.002144  -0.009538   0.584476
    7  N  1  X    0.000047   0.003915   0.156068   0.021654   0.058790
    8  N  1  Y   -0.000006   0.013928   0.012169   0.311734   0.038990
    9  N  1  Z   -0.000548   0.019946   0.037125   0.026146   0.387683
   10  N  1 XX    0.000422   0.006401   0.003298   0.008433  -0.010229
   11  N  1 YY   -0.000228  -0.006013  -0.001250  -0.008229  -0.012676
   12  N  1 ZZ   -0.000194  -0.000388  -0.002048  -0.000205   0.022905
   13  N  1 XY   -0.000114  -0.003209  -0.009660  -0.018444  -0.002246
   14  N  1 XZ   -0.000066  -0.004471   0.024416   0.001138  -0.000318
   15  N  1 YZ   -0.000098  -0.000701  -0.001558   0.025435  -0.002344
   16  H  2  S   -0.001442   0.199812  -0.258716   0.321635   0.121770
   17  H  2  S    0.000338   0.007172  -0.032852   0.116282   0.036161
   18  H  2  X   -0.000626   0.027458  -0.015418   0.034848   0.012878
   19  H  2  Y    0.000422  -0.018103   0.027517  -0.000936  -0.009709
   20  H  2  Z    0.000382  -0.006135   0.009913  -0.009991   0.020337
   21  H  3  S   -0.001706   0.210884  -0.235030  -0.352753   0.119801
   22  H  3  S    0.000274   0.005303  -0.030466  -0.121517   0.027188
   23  H  3  X   -0.000607   0.024197   0.005616  -0.026517   0.011100
   24  H  3  Y   -0.000582   0.025307  -0.024839  -0.006675   0.018874
   25  H  3  Z    0.000509  -0.014002   0.013969   0.022285   0.018332
   26  H  4  S   -0.001893   0.202605   0.438220  -0.006579   0.116154
   27  H  4  S    0.000651   0.003392   0.059819   0.011287   0.030071
   28  H  4  X    0.001003  -0.036593  -0.044381   0.010013  -0.012409
   29  H  4  Y   -0.000210   0.006907   0.014276   0.019485   0.004282
   30  H  4  Z    0.000324  -0.002729  -0.008715   0.000085   0.020492

                      6          7          8          9         10
                    0.0000     0.0000     0.0000     0.1295     0.1998
                     A          A          A          A          A   
    1  N  1  S    0.199437   0.082807   0.007842  -0.109269   0.024100
    2  N  1  S    0.717381   0.218039   0.028505  -0.160183   0.024595
    3  N  1  S    0.205973  -0.090124  -0.059759   1.176157  -0.353790
    4  N  1  X   -0.090223   0.958976   0.012580   0.036499   0.140050
    5  N  1  Y   -0.033468  -0.084258   0.840067   0.025101  -0.061156
    6  N  1  Z    0.634829  -0.006142  -0.081188  -0.154272   0.027655
    7  N  1  X   -0.065230   0.129698   0.008627  -0.209522  -0.773203
    8  N  1  Y   -0.035725  -0.016283  -0.012497  -0.079921   0.169276
    9  N  1  Z   -0.060516  -0.051632   0.006593   0.359510  -0.015347
   10  N  1 XX   -0.042332   0.009591  -0.023822   0.081952  -0.060832
   11  N  1 YY    0.037916  -0.024364   0.023010  -0.042506   0.029741
   12  N  1 ZZ    0.004416   0.014773   0.000811  -0.039446   0.031091
   13  N  1 XY    0.020086   0.032481   0.043485  -0.014113   0.035237
   14  N  1 XZ    0.032860  -0.045428   0.002366  -0.057426  -0.093493
   15  N  1 YZ    0.019757   0.016435  -0.020797  -0.028001   0.015298
   16  H  2  S   -0.435222   0.299810  -0.540768   0.403662   0.191172
   17  H  2  S   -0.064506   0.073218  -0.187053  -0.904171  -0.678899
   18  H  2  X   -0.032428   0.005030  -0.051786  -0.077793  -0.033003
   19  H  2  Y    0.039347  -0.034258   0.006300  -0.018378   0.005207
   20  H  2  Z   -0.022324   0.018766   0.010297   0.041707   0.067654
   21  H  3  S   -0.450959   0.268588   0.616894   0.326535   0.196826
   22  H  3  S   -0.058041   0.051881   0.202849  -0.872842  -0.665733
   23  H  3  X   -0.017521  -0.024627   0.037273  -0.108218  -0.008812
   24  H  3  Y   -0.051874   0.031834   0.016979   0.001001  -0.008922
   25  H  3  Z   -0.011656   0.004527  -0.019629   0.057602   0.046200
   26  H  4  S   -0.478617  -0.679564  -0.004163   0.295853  -0.542407
   27  H  4  S   -0.057993  -0.139806  -0.005972  -0.570161   1.936305
   28  H  4  X    0.055927   0.063677  -0.008195   0.077468  -0.120368
   29  H  4  Y   -0.013735  -0.013692  -0.008707   0.000608   0.036433
   30  H  4  Z   -0.009714  -0.022165   0.010325  -0.022647  -0.071902

                     11         12         13         14         15
                    0.2444     0.5297     0.5813     0.6654     0.8411
                     A          A          A          A          A   
    1  N  1  S    0.018488  -0.099947   0.013702   0.019096  -0.491970
    2  N  1  S    0.040906  -0.125666  -0.068062   0.013809  -1.111553
    3  N  1  S   -0.113793   0.723944  -0.492791  -0.101868   1.881331
    4  N  1  X    0.043033  -0.247056  -0.106964  -0.394654   0.073381
    5  N  1  Y   -0.027415  -0.426616  -0.479877   0.250442   0.000865
    6  N  1  Z    0.023027  -0.565502   0.411851   0.150598   0.290595
    7  N  1  X   -0.122852   0.603906   0.464572   1.792664  -0.074501
    8  N  1  Y    0.462725   0.669207   1.186440  -0.665705   0.005078
    9  N  1  Z   -0.094309   0.766954  -0.835483  -0.411108  -0.168827
   10  N  1 XX    0.013701  -0.026809   0.054932  -0.021572  -0.075937
   11  N  1 YY   -0.006764   0.004911  -0.034220   0.002715   0.096708
   12  N  1 ZZ   -0.006937   0.021898  -0.020712   0.018857  -0.020771
   13  N  1 XY   -0.085756  -0.015117   0.021161  -0.041856  -0.067916
   14  N  1 XZ    0.006164   0.003402  -0.002114  -0.073334   0.013694
   15  N  1 YZ    0.063887   0.008170  -0.002120   0.029842  -0.051992
   16  H  2  S    0.575030  -0.258154   0.028897   0.654165   0.055537
   17  H  2  S   -1.942406  -0.361612  -0.529625   0.547547  -0.371316
   18  H  2  X   -0.032339   0.024371  -0.039956   0.225296   0.040354
   19  H  2  Y    0.073178   0.080461  -0.115661  -0.088272   0.354797
   20  H  2  Z    0.006936   0.102539  -0.006791   0.124311  -0.015856
   21  H  3  S   -0.613291  -0.020427   0.665648   0.239120   0.070476
   22  H  3  S    2.087384   0.446378   0.856937   0.085047  -0.259528
   23  H  3  X    0.031776   0.100450   0.032307   0.075781   0.174026
   24  H  3  Y    0.082000  -0.016939   0.121107   0.161987  -0.298299
   25  H  3  Z   -0.036349   0.028617  -0.112882   0.069885   0.111000
   26  H  4  S    0.082080  -0.507719   0.268141  -0.579216  -0.143449
   27  H  4  S   -0.127879  -0.379212  -0.238013  -0.662610  -0.432019
   28  H  4  X   -0.027011   0.064593   0.039148   0.168336   0.026242
   29  H  4  Y   -0.030526  -0.025833   0.091990  -0.108928  -0.165364
   30  H  4  Z   -0.003811   0.047031  -0.050637  -0.143513   0.144433

                     16         17         18         19         20
                    1.0235     1.0797     1.2248     1.3275     1.4439
                     A          A          A          A          A   
    1  N  1  S   -0.317534  -0.292500  -0.027150  -0.264044  -0.374652
    2  N  1  S   -0.661897  -0.613151  -0.054364  -0.563533  -0.791457
    3  N  1  S    1.310663   1.318032   0.103290   0.971008   1.320346
    4  N  1  X    0.090453  -0.080238  -0.211389   0.006182   0.049359
    5  N  1  Y   -0.000070   0.111816   0.112105  -0.052247  -0.029111
    6  N  1  Z    0.089939   0.033716  -0.031246  -0.016196  -0.056513
    7  N  1  X   -0.507072   0.417907   1.094675   0.408668  -0.384562
    8  N  1  Y   -0.099073  -0.542119  -0.184980   0.216391  -0.316333
    9  N  1  Z   -0.115458   0.310446  -0.065354   0.377555   0.674305
   10  N  1 XX   -0.044648   0.065447   0.036549  -0.002267   0.118792
   11  N  1 YY   -0.213832  -0.001193  -0.041293   0.150125  -0.090561
   12  N  1 ZZ    0.258480  -0.064255   0.004743  -0.147858  -0.028231
   13  N  1 XY    0.001350   0.197390  -0.019572  -0.035713  -0.018471
   14  N  1 XZ    0.036400   0.049473   0.052178  -0.015359  -0.002959
   15  N  1 YZ    0.020922   0.235222  -0.205651   0.036067   0.102249
   16  H  2  S   -0.414884   0.110237   0.474824  -0.250766  -0.456842
   17  H  2  S   -0.131902   0.028154   0.100207   0.009170   0.084099
   18  H  2  X   -0.062752  -0.107928  -0.541368  -0.023986  -0.011498
   19  H  2  Y   -0.256263  -0.004328  -0.234093  -0.280198  -0.148312
   20  H  2  Z    0.378989   0.145685  -0.495597  -0.151232  -0.539277
   21  H  3  S   -0.404119  -0.307801   0.110696  -0.111191  -0.505150
   22  H  3  S   -0.182394  -0.216901   0.085520  -0.049819  -0.282156
   23  H  3  X   -0.071001  -0.266795   0.189319  -0.505788   0.040814
   24  H  3  Y    0.334963  -0.122591   0.071144   0.088332   0.051959
   25  H  3  Z    0.383226  -0.433891   0.028190  -0.374672   0.319828
   26  H  4  S    0.007438  -0.446276  -0.544646  -0.380964  -0.251683
   27  H  4  S   -0.100670  -0.344257  -0.271740  -0.197570  -0.050675
   28  H  4  X   -0.024536   0.190163  -0.155165  -0.180168   0.102282
   29  H  4  Y    0.010497   0.496935   0.069728  -0.650177   0.269647
   30  H  4  Z    0.270436   0.129808   0.408181  -0.040810  -0.678072

                     21         22         23         24         25
                    1.6092     1.7961     1.8733     2.0025     2.0600
                     A          A          A          A          A   
    1  N  1  S    0.141728   0.108512   0.074648   0.043941  -0.066599
    2  N  1  S    0.276050   0.342021   0.168378   0.075067  -0.144365
    3  N  1  S   -0.635930   0.864166   0.266209  -0.258598   0.006749
    4  N  1  X   -0.147001  -0.306936   0.560701   0.007197  -0.092915
    5  N  1  Y   -0.164958  -0.114559  -0.110488  -0.104605   0.149004
    6  N  1  Z    0.026363   0.262591  -0.006137   0.013186  -0.052838
    7  N  1  X    0.658032  -0.084797   0.300091  -0.135789  -0.079811
    8  N  1  Y   -0.408065   0.093807  -0.108256  -0.062504  -0.202587
    9  N  1  Z   -0.307520   0.300924   0.059435  -0.287364  -0.100367
   10  N  1 XX   -0.015865  -0.147660  -0.203973  -0.102163   0.056724
   11  N  1 YY   -0.100159   0.078245   0.201075   0.786286   0.398142
   12  N  1 ZZ    0.116024   0.069415   0.002898  -0.684124  -0.454866
   13  N  1 XY   -0.111896   0.037035   0.037093  -0.117267   0.290854
   14  N  1 XZ   -0.012230   0.155653  -0.178217   0.161124   0.079272
   15  N  1 YZ    0.191059   0.230195   0.160057   0.041126  -0.023845
   16  H  2  S    0.266498  -0.104888  -0.007877   0.150527  -0.191725
   17  H  2  S    0.469845  -0.354336   0.102679   0.238327  -0.279526
   18  H  2  X    0.546031  -0.750595   0.086511   0.133434  -0.056988
   19  H  2  Y    0.140107   0.216810  -0.075460  -0.657108   0.816422
   20  H  2  Z   -0.445313   0.105242  -0.451175   0.246149  -0.049074
   21  H  3  S    0.410644  -0.060796  -0.036714  -0.076672   0.137866
   22  H  3  S   -0.286555  -0.244140   0.206637  -0.253086   0.262109
   23  H  3  X   -0.536115  -0.549838   0.083939   0.127532  -0.134806
   24  H  3  Y   -0.042693  -0.254629   0.287503  -0.241762   1.013969
   25  H  3  Z    0.309911   0.485984  -0.047805   0.426735   0.205923
   26  H  4  S   -0.185818  -0.101126  -0.113983   0.114066   0.065621
   27  H  4  S    0.026542  -0.086296  -0.509872   0.129112   0.048279
   28  H  4  X   -0.241122   0.343604   0.961898  -0.073202  -0.230746
   29  H  4  Y    0.264811  -0.206817  -0.158812   0.282862   0.065492
   30  H  4  Z    0.433621  -0.254904   0.410899   0.158263   0.002875

                     26         27         28         29
                    2.2615     2.5682     2.6420     3.0106
                     A          A          A          A   
    1  N  1  S   -0.095862  -0.043706  -0.137984  -0.046129
    2  N  1  S   -0.155260  -0.134896  -0.131269   0.007035
    3  N  1  S    0.759080  -0.712963   1.909453   1.208773
    4  N  1  X   -0.014438  -0.342260  -0.246674   0.342796
    5  N  1  Y   -0.020514   0.238104  -0.167811   0.165511
    6  N  1  Z    0.050269  -0.123866   0.268183   0.090098
    7  N  1  X   -0.043141  -0.964094  -0.949105   0.532401
    8  N  1  Y   -0.461893   0.603705  -0.310689   0.231839
    9  N  1  Z    0.404753  -0.126385   0.553532   0.097010
   10  N  1 XX   -0.447961  -0.577471   0.612156   1.013197
   11  N  1 YY    0.256450   0.343534  -0.168178  -0.439634
   12  N  1 ZZ    0.191511   0.233938  -0.443977  -0.573563
   13  N  1 XY   -0.540607  -0.475511   0.240914  -1.112959
   14  N  1 XZ   -0.014625  -0.741552  -1.054877   0.252909
   15  N  1 YZ   -0.748638   0.608769  -0.384627   0.329163
   16  H  2  S   -0.159486  -0.638240  -0.662195  -0.736284
   17  H  2  S    0.007571  -0.371677  -0.141476  -0.203856
   18  H  2  X   -0.023620  -0.636559  -0.323841  -0.590939
   19  H  2  Y    0.150095   0.206589   0.195198   0.467752
   20  H  2  Z    0.061794   0.093990   0.229560   0.408186
   21  H  3  S   -0.323275   0.344868  -1.248676   0.617752
   22  H  3  S   -0.187068   0.209544  -0.483725   0.178615
   23  H  3  X   -0.611487   0.316996  -0.585180   0.352380
   24  H  3  Y    0.158526   0.222861  -0.621629   0.407075
   25  H  3  Z   -0.211234  -0.278401   0.583718  -0.310994
   26  H  4  S   -0.211094   1.050799  -0.119548  -1.184927
   27  H  4  S   -0.086268   0.429613   0.051373  -0.339974
   28  H  4  X    0.302492  -0.828696   0.110096   0.902459
   29  H  4  Y    0.558107   0.337763   0.010008  -0.121734
   30  H  4  Z   -0.226050  -0.046842   0.284126   0.396923
 .....DONE WITH MCSCF ITERATIONS.....
 CPU     0: STEP CPU TIME=     9.99 TOTAL CPU TIME=         11.1 (      0.2 MIN)
 TOTAL WALL CLOCK TIME=         11.1 SECONDS, CPU UTILIZATION IS    99.91%

     ----------------------------------------------------------------
     PROPERTY VALUES FOR THE MCSCF SELF-CONSISTENT FIELD WAVEFUNCTION
     ----------------------------------------------------------------

          -----------------
          ENERGY COMPONENTS
          -----------------

         WAVEFUNCTION NORMALIZATION =       1.0000000000

                ONE ELECTRON ENERGY =     -93.8231252325
                TWO ELECTRON ENERGY =      26.9632941743
           NUCLEAR REPULSION ENERGY =      11.1483104686
                                      ------------------
                       TOTAL ENERGY =     -55.7115205896

 ELECTRON-ELECTRON POTENTIAL ENERGY =      26.9632941743
  NUCLEUS-ELECTRON POTENTIAL ENERGY =    -149.5305741075
   NUCLEUS-NUCLEUS POTENTIAL ENERGY =      11.1483104686
                                      ------------------
             TOTAL POTENTIAL ENERGY =    -111.4189694646
               TOTAL KINETIC ENERGY =      55.7074488750
                 VIRIAL RATIO (V/T) =       2.0000730910

          ---------------------------------------
          MULLIKEN AND LOWDIN POPULATION ANALYSES
          ---------------------------------------

     ATOMIC MULLIKEN POPULATION IN EACH MOLECULAR ORBITAL

                      1          2          3          4          5

                  2.000000   1.980763   1.654968   1.648920   1.638930

    1             2.000677   1.356420   1.474404   0.915117   1.169060
    2            -0.000147   0.180486   0.007481   0.213619   0.231088
    3            -0.000250   0.268605   0.014776   0.211820   0.227812
    4            -0.000280   0.175253   0.158307   0.308365   0.010969

                      6          7          8

                  0.032394   0.025231   0.018793

    1             0.014156   0.013343   0.010039
    2             0.013094   0.001309   0.001038
    3             0.002693   0.010293   0.000045
    4             0.002451   0.000287   0.007671
 WARNING! MCSCF POPULATIONS SHOWN ABOVE ARE FOR THE NATURAL ORBITALS.
 IGNORE THE ABOVE DATA FOR MCSCF FUNCTIONS WHICH ARE NOT OF -FORS- TYPE.
 THE FOLLOWING POPULATIONS ARE CORRECT FOR ANY MCSCF WAVEFUNCTION.

               ----- POPULATIONS IN EACH AO -----
                             MULLIKEN      LOWDIN
              1  N  1  S      2.00231     1.90278
              2  N  1  S      0.81886     0.57824
              3  N  1  S      0.69668     0.41130
              4  N  1  X      0.63025     0.54769
              5  N  1  Y      0.74722     0.69016
              6  N  1  Z      0.85619     0.80555
              7  N  1  X      0.24075     0.37652
              8  N  1  Y      0.42016     0.47667
              9  N  1  Z      0.52455     0.56222
             10  N  1 XX      0.00051     0.18798
             11  N  1 YY      0.00156     0.15080
             12  N  1 ZZ      0.00379     0.14353
             13  N  1 XY      0.00596     0.01047
             14  N  1 XZ      0.00444     0.01287
             15  N  1 YZ      0.00000     0.00673
             16  H  2  S      0.54132     0.41515
             17  H  2  S      0.05410     0.15152
             18  H  2  X      0.02422     0.04011
             19  H  2  Y      0.01611     0.04084
             20  H  2  Z      0.01221     0.02825
             21  H  3  S      0.62033     0.47464
             22  H  3  S      0.05685     0.14931
             23  H  3  X      0.01902     0.03419
             24  H  3  Y      0.02127     0.04917
             25  H  3  Z      0.01832     0.03935
             26  H  4  S      0.57787     0.45085
             27  H  4  S      0.02905     0.14693
             28  H  4  X      0.03555     0.06114
             29  H  4  Y      0.00971     0.02486
             30  H  4  Z      0.01085     0.03016

          ----- MULLIKEN ATOMIC OVERLAP POPULATIONS -----
          (OFF-DIAGONAL ELEMENTS NEED TO BE MULTIPLIED BY 2)

             1           2           3           4

    1    6.1245209
    2    0.2534539   0.4102983
    3    0.2687748  -0.0102246   0.4819730
    4    0.3064674  -0.0055604  -0.0047303   0.3668462

          TOTAL MULLIKEN AND LOWDIN ATOMIC POPULATIONS
       ATOM         MULL.POP.    CHARGE          LOW.POP.     CHARGE
    1 N             6.953217    0.046783         6.863528    0.136472
    2 H             0.647967    0.352033         0.675872    0.324128
    3 H             0.735793    0.264207         0.746660    0.253340
    4 H             0.663023    0.336977         0.713939    0.286061

          MULLIKEN SPHERICAL HARMONIC POPULATIONS
       ATOM           S       P       D      F      G      H      I    TOTAL
    1 N             3.52    3.42    0.02   0.00   0.00   0.00   0.00    6.95
    2 H             0.60    0.05    0.00   0.00   0.00   0.00   0.00    0.65
    3 H             0.68    0.06    0.00   0.00   0.00   0.00   0.00    0.74
    4 H             0.61    0.06    0.00   0.00   0.00   0.00   0.00    0.66

          ---------------------
          ELECTROSTATIC MOMENTS
          ---------------------

 POINT   1           X           Y           Z (BOHR)    CHARGE
                -0.000004   -0.000002   -0.177185        1.00 (A.U.)
         DX          DY          DZ         /D/  (DEBYE)
    -0.729502   -0.357155    2.163761    2.311189
 ...... END OF PROPERTY EVALUATION ......
 CPU     0: STEP CPU TIME=     0.00 TOTAL CPU TIME=         11.1 (      0.2 MIN)
 TOTAL WALL CLOCK TIME=         11.1 SECONDS, CPU UTILIZATION IS    99.82%

     -------------------------------------------------
     GMC-PT/GMC-QDPT or general MCSCF input parameters
     -------------------------------------------------
 # of frozen core orbs. =         0 ->         0
 # of doubly occ. orbs. =         1
 # of active      orbs. =         7
 # of virtual     orbs. =        21
 # of active electrons  =         7
 # of states in CI      =         3
 Highest state in CI    =         3
 kstate =  1 1 1
 avecoe =  0.333 0.333 0.333
 State symmetry           = A           
 Assigned symmetry number = 1

 <<<Act. MO sym.: 1111111

 <<<Division of 1-ext.:  0
 <<<Division of 2-ext.:  0

     ------------------------
     Orbital canonicalization
     ------------------------

 MOs are canonicalized for core, virtual, and invariant-active orbital spaces.
 This is a part of the GMC-QDPT calculation.
 SCHWARZ INEQUALITY OVERHEAD:       465 INTEGRALS, T=        0.00
 DIRECT TRANSFORMATION SKIPS AO INTEGRAL STORAGE ON DISK.

 Averaged energy =     -55.711520590

 State #    1  Energy =     -55.847723219  S =  0.500
 State #    2  Energy =     -55.737580610  S =  0.500
 State #    3  Energy =     -55.549257939  S =  0.500

 Orbital energies for filled orbital space
  -15.983150
 Orbital energies for active orbital space
   -1.500182  -0.998491  -0.805944  -0.731049   0.159547
    0.405593   0.272770
 Orbital energies for external orbital space
    0.129490   0.199751   0.244351   0.529679   0.581290
    0.665420   0.841100   1.023521   1.079686   1.224827
    1.327530   1.443902   1.609230   1.796104   1.873333
    2.002498   2.060003   2.261516   2.568181   2.642009
    3.010585

 Zero values mean non-canonical orbitals.
 ... done with orbital canonicalization ...
 CPU     0: STEP CPU TIME=     0.58 TOTAL CPU TIME=         11.7 (      0.2 MIN)
 TOTAL WALL CLOCK TIME=         11.7 SECONDS, CPU UTILIZATION IS    99.83%

     --------------------------------------------
     PARTIAL TWO ELECTRON INTEGRAL TRANSFORMATION
     --------------------------------------------

 NUMBER OF CORE MOLECULAR ORBITALS     =    0
 NUMBER OF OCCUPIED MOLECULAR ORBITALS =    8
 TOTAL NUMBER OF MOLECULAR ORBITALS    =   29
 TOTAL NUMBER OF ATOMIC ORBITALS       =   30
 THRESHOLD FOR KEEPING TRANSFORMED 2E- INTEGRALS = 1.000E-09
 AO INTEGRALS WILL BE CALCULATED IN DIRECT MODE...
 DIRECT TRANSFORMATION SKIPS AO INTEGRAL STORAGE ON DISK.
 SCHWARZ INEQUALITY OVERHEAD:       465 INTEGRALS, T=        0.00

 PLAN A: REQUIREMENTS FOR FULLY IN-MEMORY TRANSFORMATION:
 # OF WORDS AVAILABLE =            100000000
 # OF WORDS NEEDED    =               221798

 PARALLEL ONLY WORKS WITH THE SEGMENTED ALGORITHM.
 ADJUSTING MEMORY TO USE SEGMENTED ALGORITHM.


 PLAN B: REQUIREMENTS FOR THE SEGMENTED TRANSFORMATION:
       MINIMUM=         124148 WORDS FOR 1 MOLECULAR ORBITAL PER PASS
       MAXIMUM=         221798 WORDS FOR ALL MOLECULAR ORBITALS IN 1 PASS
              (          13950 EXTRA WORDS INCLUDES 1 EXTRA ORBITAL/PASS)
 THIS RUN USES=         221798 WORDS,
 DISTRIBUTING   1 PASSES EACH CONTAINING     8 ORBITALS OVER   1 PROCESSORS.

 CHOOSING SEGMENTED PARTIAL TRANSFORMATION...
 DIRECT TRANSFORMATION SKIPS AO INTEGRAL STORAGE ON DISK.
 PASS #   1 TOOK        0.05 SECONDS.
 TOTAL NUMBER OF TRANSFORMED 2E- INTEGRALS KEPT =        29226
 ... END OF INTEGRAL TRANSFORMATION ...
 CPU     0: STEP CPU TIME=     0.05 TOTAL CPU TIME=         11.7 (      0.2 MIN)
 TOTAL WALL CLOCK TIME=         11.7 SECONDS, CPU UTILIZATION IS    99.91%

     --------     ------------------------------------------
     GMC-QDPT     Program written by H.Nakano (Kyushu Univ.)
     --------     ------------------------------------------

 *** Reference space

 Reference type: ORMAS (= Occupation restricted multiple active space)
 # of orbitals          =  7
 # of minimum electrons =  7
 # of maximum electrons =  7
 State symmetry    =    1 (input)
 2*Sz              =    1 (input)
 Spin multiplicity =    2 (input)
 Dimension of reference space =      1225  (from      3432 walks)

 Dimension of reference space =      1225  (from      1225 walks)

 <<<Ionized spaces for Ref-CI:
      0:         1225 /   -1-0:         1960 /  0-1-0:         2891

 ***                    ***
 *** Reference space CI ***
 ***                    ***

 Converged after   28 iterations

 Reference wavefunctions:

 State #    1  Energy =     -55.847723219  S =  0.500

      Det      Coef    Occupancy (Ignoring core)
      ---      ----    --------- --------- -----
        1   -0.970890  11110001110000
       36   -0.101047  11110001101000
      143   -0.053497  11011001100100
      393   -0.055495  10110101010010
      717   -0.059932  11010011100001

 State #    2  Energy =     -55.737580610  S =  0.500

      Det      Coef    Occupancy (Ignoring core)
      ---      ----    --------- --------- -----
        1    0.105031  11110001110000
       36   -0.975767  11110001101000
      463   -0.056134  10110101001010

 State #    3  Energy =     -55.549257939  S =  0.500

      Det      Coef    Occupancy (Ignoring core)
      ---      ----    --------- --------- -----
       71    0.975248  11110001011000
      248   -0.053706  11011001001100
      822   -0.061712  11010011001001

 Davidson method: CPU/Wall time =           0.41 /           0.40 sec.

 Oscillator strength (invalid if E(1)/=E(GS)):
 -----------------------------------------
   State                        f
 -----------------------------------------
     2     F(REF-CI)=        0.0013164843
     3     F(REF-CI)=        0.0045086492
 -----------------------------------------

 Dipole moment matrix elements, x, y, z, in A.U.

 Dimension of ionized spaces for PT:
 (N-2) space:         1715 /  (N-1) space:         2842 /  N space:         2891
 (N+1) space:         2842 /  (N+2) space:         1715

 <<<Ionized spaces for internal:
         0:         1225 /      -1-0:         1960 /     0-1-0:         2891
  -1-0-1-0:         2842 / 0-1-0-1-0:         3381

 Diagonal elements of averaged one-particle density matrix:
       2       3       4       5       6       7       8
  0.9929  0.9871  0.9844  0.9910  0.0188  0.0111  0.0147
  0.9877  0.6620  0.6562  0.6618  0.0133  0.0079  0.0111

 Orbital energies:
 -------- Doubly-occupied orbitals (highest several orbs.) -------
             1
 -1.598315D+01
 -------- Active orbitals ----------------------------------------
             2            3            4            5            6
 -1.500182D+00-9.984908D-01-8.059440D-01-7.310486D-01 1.595471D-01
             7            8
  4.055927D-01 2.727696D-01
 -------- External orbitals (lowest several orbs.) ---------------
             9           10           11           12           13
  1.294895D-01 1.997510D-01 2.443509D-01 5.296788D-01 5.812902D-01
            14           15           16           17           18
  6.654198D-01 8.411004D-01 1.023521D+00 1.079686D+00 1.224827D+00

 *** Quasi-degeneracy checking

 === Det (|Ci| > 1.0D-01 and dE < 5.0D-03)

 # of small denominators (single excitations)
 State       dEmin  dE < 5.0D-03  dE < 5.0D-04  dE < 5.0D-05  dE < 5.0D-06
 ----- ----------- ------------- ------------- ------------- -------------
     1    5.00D-03             0             0             0             0
     2    5.00D-03             0             0             0             0
     3    5.00D-03             0             0             0             0

 # of small denominators (double excitations)
 State       dEmin  dE < 5.0D-03  dE < 5.0D-04  dE < 5.0D-05  dE < 5.0D-06
 ----- ----------- ------------- ------------- ------------- -------------
     1    5.00D-03             0             0             0             0
     2    5.00D-03             0             0             0             0
     3    5.00D-03             0             0             0             0

 *** Zeroth-Order Setup (Granovsky's zeroth-order vectors)
 Zeroth-order effective Hamiltonian
  (= Sum_i e(i)*<I|a+(i)a(i)|J> ):
                   1            2            3
     1 -7.232517D+00
     2  1.340129D-02-7.179645D+00
     3  7.791677D-04 4.888063D-03-6.973760D+00

 Zeroth-order vectors:
 State #    1
       MC st            1           2           3
       Coeff    9.726D-01  -2.326D-01   1.447D-03
 State #    2
       MC st            2           1           3
       Coeff   -9.723D-01  -2.325D-01   2.433D-02
 State #    3
       MC st            3           2           1
       Coeff    9.997D-01   2.400D-02   4.251D-03

 *** GMC-QDPT computation

 (Integral reading:  CPU/Wall time =           0.00 /           0.00 sec.)

 One-external:
   0 -ionized terms: CPU/Wall time =           0.03 /           0.03 sec.
 (-1)-ionized terms: CPU/Wall time =           0.09 /           0.09 sec.
 (+1)-ionized terms: CPU/Wall time =           0.02 /           0.02 sec.
 (+1)-ionized terms: CPU/Wall time =           0.01 /           0.01 sec.
 (+2)-ionized terms: CPU/Wall time =           0.00 /           0.00 sec.

 Internal:
 # of macro loops for internal contribution =         1 (input)
 Loop:    1
 Dimension of internal CISD space     =         0  (after screening)
 Space construction: CPU/Wall time =           0.02 /           0.02 sec.
 Internal terms:     CPU/Wall time =           0.00 /           0.00 sec.

 Two-external:
   0 -ionized terms: CPU/Wall time =           0.06 /           0.06 sec.
 (-1)-ionized terms: CPU/Wall time =           1.00 /           1.00 sec.
 (-2)-ionized terms: CPU/Wall time =           0.17 /           0.17 sec.

 Total time:         CPU/Wall time =           1.40 /           1.40 sec.

 ***                  ***
 *** GMC-QDPT Results ***
 ***                  ***

 Diagonal elements of effective Hamiltonian:
 Heff(  1) =   -55.94140836
 Heff(  2) =   -55.85015785
 Heff(  3) =   -55.66072823

 Off-diagonal elements of effective Hamiltonian:
                   1            2
     2  2.214925D-02
     3  3.585799D-04 4.352004D-03

 ******** GMC-QDPT energies ********
 ----------------------------------------------------------------------------
   State                        1st order                           2nd order
 ----------------------------------------------------------------------------
     1     E(REF-CI)=      -55.8477232192   E(GMC-QDPT2)=      -55.9465018610
     2     E(REF-CI)=      -55.7375806104   E(GMC-QDPT2)=      -55.8451669856
     3     E(REF-CI)=      -55.5492579392   E(GMC-QDPT2)=      -55.6606255933
 ----------------------------------------------------------------------------

 Excitation energies (invalid if E(1)/=E(GS)):
 ----------------------------------------------------------------------------
   State                        1st order                           2nd order
 ----------------------------------------------------------------------------

     TZ Sorted GMC-PT ENERGIES:
         1      -55.9465018610
         2      -55.8451669856
         3      -55.6606255933
     2     E(REF-CI)=        2.9971346 eV   E(GMC-QDPT2)=        2.7574638 eV
     3     E(REF-CI)=        8.1216581 eV   E(GMC-QDPT2)=        7.7790935 eV
 ----------------------------------------------------------------------------

 Main characters of perturbed GMC-QDPT states:

 State #    1  Energy =     -55.946501861  S =  0.500

      Det      Coef    Occupancy (Ignoring core)
      ---      ----    --------- --------- -----
        1   -0.971753  11110001110000
       36   -0.092624  11110001101000
      143   -0.053302  11011001100100
      393   -0.055507  10110101010010
      717   -0.060072  11010011100001

 State #    2  Energy =     -55.845166986  S =  0.500

      Det      Coef    Occupancy (Ignoring core)
      ---      ----    --------- --------- -----
        1    0.096626  11110001110000
       36   -0.976615  11110001101000
      463   -0.056175  10110101001010

 State #    3  Energy =     -55.660625593  S =  0.500

      Det      Coef    Occupancy (Ignoring core)
      ---      ----    --------- --------- -----
       71    0.975249  11110001011000
      248   -0.053719  11011001001100
      822   -0.061689  11010011001001

 <<<Max |V/de| = 2.815D-02  Thresh = 1.000D+00

 Oscillator strength (invalid if E(1)/=E(GS)):
 ----------------------------------------------------------------------------
   State                        1st order                           2nd order
 ----------------------------------------------------------------------------
     2     F(REF-CI)=        0.0013164843     F(GMC-PT2)=        0.0012723641
     3     F(REF-CI)=        0.0045086492     F(GMC-PT2)=        0.0044057779
 ----------------------------------------------------------------------------

 Dipole moment matrix elements, x, y, z, in A.U.
States    1    1       -0.3036757688       -0.1208538098        0.6911566665
States    1    2       -0.0301586039       -0.0225548418        0.1319688926
States    1    3        0.1297511135       -0.0284752291        0.0739664637
States    2    1       -0.0301586039       -0.0225548418        0.1319688926
States    2    2       -0.1331676877       -0.2428842448        0.3081375414
States    2    3       -0.0606898348        0.1263406353       -0.0005649279
States    3    1        0.1297511135       -0.0284752291        0.0739664637
States    3    2       -0.0606898348        0.1263406353       -0.0005649279
States    3    3       -0.5868958674       -0.1570365154        0.2589329821

 Oscillator strength (valid only when positive): 
 ----------------------------------------------------------------------------
  States                        1st order                           2nd order
 ----------------------------------------------------------------------------
  1  1     F(REF-CI)=        0.0000000000     F(GMC-PT2)=        0.0000000000
  1  2     F(REF-CI)=       -0.0013164843     F(GMC-PT2)=       -0.0012723641
  1  3     F(REF-CI)=       -0.0045086492     F(GMC-PT2)=       -0.0044057779
  2  1     F(REF-CI)=        0.0013164843     F(GMC-PT2)=        0.0012723641
  2  2     F(REF-CI)=        0.0000000000     F(GMC-PT2)=        0.0000000000
  2  3     F(REF-CI)=       -0.0024979699     F(GMC-PT2)=       -0.0024169425
  3  1     F(REF-CI)=        0.0045086492     F(GMC-PT2)=        0.0044057779
  3  2     F(REF-CI)=        0.0024979699     F(GMC-PT2)=        0.0024169425
  3  3     F(REF-CI)=        0.0000000000     F(GMC-PT2)=        0.0000000000
 CPU     0: STEP CPU TIME=     1.87 TOTAL CPU TIME=         13.6 (      0.2 MIN)
 TOTAL WALL CLOCK TIME=         13.6 SECONDS, CPU UTILIZATION IS    99.85%

     !!! DIABATIZATION FOR REF CI STATES !!!

 *******************************************************
          $DMO GROUP FOUND IN THE INPUT.
        DIABATIZATION OF ADIABATIC STATES BEGINS.
     PROGRAMMED BY TAO ZENG (CARLETON UNIVERSITY).
               Email: toby.zeng@carleton.ca
     See T. Zeng, J. Chem. Phys. 2017, 146, 144103
 *******************************************************

 *************************************************************************
     STEP 1: TRANSFORMATION OF ADIABATIC STATES TO THE DMO REPRESENTATION
         See Atchity and Ruedenberg, J. Chem. Phys. 1999, 111, 2910
 *************************************************************************

Read in Diabatic Molecualr Orbitals:

                      1          2          3          4          5

    1  N  1  S    0.008609   0.000000   0.000000  -0.013219   0.279491
    2  N  1  S    0.442914  -0.000000   0.000000  -0.184329   0.867803
    3  N  1  S    0.276913   0.000000  -0.000000  -0.288315   0.144236
    4  N  1  X   -0.000000   0.493155  -0.024636  -0.000000  -0.000000
    5  N  1  Y    0.000000   0.024636   0.493155  -0.000000   0.000000
    6  N  1  Z    0.090197   0.000000   0.000000   0.593421   0.705309
    7  N  1  X   -0.000000   0.210628  -0.010522   0.000000   0.000000
    8  N  1  Y    0.000000   0.010522   0.210628  -0.000000  -0.000000
    9  N  1  Z   -0.004381   0.000000   0.000000   0.381592  -0.106092
   10  N  1 XX   -0.000457   0.010719  -0.000535  -0.012387   0.006153
   11  N  1 YY   -0.000457  -0.010719   0.000535  -0.012387   0.006153
   12  N  1 ZZ    0.000914  -0.000000   0.000000   0.024773  -0.012306
   13  N  1 XY    0.000000  -0.000618  -0.012377  -0.000000   0.000000
   14  N  1 XZ   -0.000000   0.026529  -0.001325  -0.000000   0.000000
   15  N  1 YZ    0.000000   0.001325   0.026529  -0.000000   0.000000
   16  H  2  S    0.194462  -0.176074   0.343485   0.112865  -0.523343
   17  H  2  S    0.003574  -0.023812   0.046452   0.024014  -0.054445
   18  H  2  X    0.018760   0.009101   0.022834   0.009336  -0.039151
   19  H  2  Y   -0.032493   0.022287  -0.020044  -0.016171   0.067811
   20  H  2  Z   -0.009251   0.008464  -0.016511   0.018769  -0.010566
   21  H  3  S    0.194462  -0.209430  -0.324227   0.112865  -0.523343
   22  H  3  S    0.003574  -0.028322  -0.043847   0.024014  -0.054445
   23  H  3  X    0.018760   0.006781  -0.023627   0.009336  -0.039151
   24  H  3  Y    0.032493  -0.024174  -0.017723   0.016171  -0.067811
   25  H  3  Z   -0.009251   0.010067   0.015585   0.018769  -0.010566
   26  H  4  S    0.194462   0.385503  -0.019258   0.112865  -0.523343
   27  H  4  S    0.003574   0.052134  -0.002604   0.024014  -0.054445
   28  H  4  X   -0.037519  -0.032295   0.001613  -0.018672   0.078302
   29  H  4  Y    0.000000   0.001067   0.021353  -0.000000   0.000000
   30  H  4  Z   -0.009251  -0.018530   0.000926   0.018769  -0.010566

                      6          7

    1  N  1  S    0.000000  -0.000000
    2  N  1  S    0.000000  -0.000000
    3  N  1  S   -0.000000   0.000000
    4  N  1  X   -0.930415  -0.002083
    5  N  1  Y   -0.002083   0.930415
    6  N  1  Z   -0.000000   0.000000
    7  N  1  X   -0.046866  -0.000105
    8  N  1  Y   -0.000105   0.046866
    9  N  1  Z   -0.000000   0.000000
   10  N  1 XX    0.001538   0.000003
   11  N  1 YY   -0.001538  -0.000003
   12  N  1 ZZ   -0.000000   0.000000
   13  N  1 XY   -0.000004   0.001776
   14  N  1 XZ    0.039985   0.000090
   15  N  1 YZ    0.000090  -0.039985
   16  H  2  S   -0.362630  -0.631354
   17  H  2  S   -0.065964  -0.114846
   18  H  2  X    0.002763  -0.037520
   19  H  2  Y    0.037435   0.040736
   20  H  2  Z    0.001882   0.003276
   21  H  3  S   -0.365454   0.629724
   22  H  3  S   -0.066477   0.114549
   23  H  3  X    0.002595   0.037532
   24  H  3  Y   -0.037617   0.040567
   25  H  3  Z    0.001896  -0.003268
   26  H  4  S    0.728084   0.001630
   27  H  4  S    0.132441   0.000297
   28  H  4  X   -0.062317  -0.000140
   29  H  4  Y    0.000055  -0.024345
   30  H  4  Z   -0.003778  -0.000008

NUMBER OF SUB ACTIVE SPACES:   1
ROTATE ACTIVE MOS TO DMOS IN EACH SUB-SPACE

SPACE  1:

OVERLAP BETWEEN ORTHONORMAL AND PRE-ORTHONORMAL REF. DMOS

             1           2           3           4           5

    1    0.9791708  -0.0200407  -0.0203473  -0.0073348   0.0001081
    2   -0.0200407   1.0356038  -0.0305034  -0.0358002   0.0719685
    3   -0.0203473  -0.0305034   0.8916592  -0.0206775   0.0227737
    4   -0.0073348  -0.0358002  -0.0206775   0.9947122  -0.0093733
    5    0.0001081   0.0719685   0.0227737  -0.0093733   1.1281155
    6    0.0023140   0.0511362  -0.0295100  -0.0490343   0.0461688
    7    0.0010495   0.0134874   0.0792123   0.0173808   0.0401318

             6           7

    1    0.0023140   0.0010495
    2    0.0511362   0.0134874
    3   -0.0295100   0.0792123
    4   -0.0490343   0.0173808
    5    0.0461688   0.0401318
    6    1.0359561  -0.0128419
    7   -0.0128419   1.0571313
REFERENCE DMOS AFTER ORTHONORMALIZATION:

                      1          2          3          4          5

    1  N  1  S    0.008221  -0.017137  -0.006650  -0.012029   0.249644
    2  N  1  S    0.449733  -0.049244  -0.014438  -0.178407   0.773800
    3  N  1  S    0.280325  -0.012543  -0.004594  -0.288086   0.127127
    4  N  1  X    0.011821   0.519883  -0.039548  -0.027359   0.005923
    5  N  1  Y    0.009608   0.028873   0.480920  -0.002962  -0.042580
    6  N  1  Z    0.096223  -0.020782   0.002355   0.603181   0.632664
    7  N  1  X    0.004283   0.206949  -0.005827   0.004594  -0.010703
    8  N  1  Y    0.005233   0.017182   0.235073   0.005337  -0.007021
    9  N  1  Z   -0.000968   0.019111   0.012986   0.384831  -0.093084
   10  N  1 XX   -0.000376   0.009566  -0.000672  -0.012069   0.004750
   11  N  1 YY   -0.000795  -0.011159  -0.000326  -0.012901   0.006136
   12  N  1 ZZ    0.001171   0.001593   0.000998   0.024970  -0.010887
   13  N  1 XY   -0.000322  -0.001072  -0.014197  -0.000399   0.000268
   14  N  1 XZ    0.000439   0.024090   0.000714   0.002710  -0.003081
   15  N  1 YZ    0.000807   0.002799   0.033492   0.001536   0.000577
   16  H  2  S    0.208187  -0.095393   0.444822   0.111975  -0.430932
   17  H  2  S    0.005105  -0.012933   0.061418   0.023619  -0.042032
   18  H  2  X    0.020191   0.013169   0.031090   0.011190  -0.034956
   19  H  2  Y   -0.033705   0.013504  -0.026989  -0.015145   0.056978
   20  H  2  Z   -0.009517   0.008602  -0.018080   0.018676  -0.009645
   21  H  3  S    0.187055  -0.169368  -0.419710   0.068506  -0.453576
   22  H  3  S    0.002058  -0.023752  -0.060480   0.016632  -0.046968
   23  H  3  X    0.018761   0.008197  -0.027991   0.008404  -0.036127
   24  H  3  Y    0.032478  -0.017826  -0.022754   0.012499  -0.058576
   25  H  3  Z   -0.008675   0.011410   0.018899   0.019747  -0.010279
   26  H  4  S    0.206712   0.383204   0.035089   0.159551  -0.517727
   27  H  4  S    0.004700   0.049188   0.005125   0.031866  -0.056631
   28  H  4  X   -0.039154  -0.034883  -0.004559  -0.022767   0.074205
   29  H  4  Y    0.000624   0.002144   0.026294   0.001089   0.000215
   30  H  4  Z   -0.009635  -0.016794   0.000805   0.018055  -0.008102

                      6          7

    1  N  1  S   -0.011165  -0.008706
    2  N  1  S   -0.042233  -0.025692
    3  N  1  S   -0.019441  -0.000100
    4  N  1  X   -0.926703  -0.016685
    5  N  1  Y    0.022482   0.845656
    6  N  1  Z    0.000812  -0.033932
    7  N  1  X   -0.054968  -0.002644
    8  N  1  Y    0.006632   0.026754
    9  N  1  Z    0.021746  -0.003745
   10  N  1 XX    0.000210  -0.000047
   11  N  1 YY   -0.001824   0.000121
   12  N  1 ZZ    0.001613  -0.000074
   13  N  1 XY   -0.000351   0.002750
   14  N  1 XZ    0.037697   0.000254
   15  N  1 YZ    0.000447  -0.040412
   16  H  2  S   -0.316296  -0.618878
   17  H  2  S   -0.059702  -0.112599
   18  H  2  X    0.004489  -0.036812
   19  H  2  Y    0.032001   0.038892
   20  H  2  Z    0.002267   0.004440
   21  H  3  S   -0.325377   0.641256
   22  H  3  S   -0.060432   0.113967
   23  H  3  X    0.003750   0.038756
   24  H  3  Y   -0.032430   0.041900
   25  H  3  Z    0.003162  -0.004540
   26  H  4  S    0.715303   0.019539
   27  H  4  S    0.129614   0.002465
   28  H  4  X   -0.062890  -0.002513
   29  H  4  Y    0.000426  -0.025048
   30  H  4  Z   -0.001556   0.000147

 -------------------------------------------
       MAXIMIZING MORMO OVERLAP TERM        
 -------------------------------------------
   SWEEP    VALUE       PROGRESS
     0     5.10663
     1     6.85761     1.75098468
     2     6.95835     0.10073551
     3     6.95838     0.00003530
     4     6.95838     0.00000000
     5     6.95838     0.00000000
 THE ROTATION IS DONE
ACTIVE ORBITALS AFTER MORMO:

                      1          2          3          4          5

    1  N  1  S    0.006692  -0.021738  -0.014320  -0.012092   0.203467
    2  N  1  S    0.428799  -0.045168  -0.038557  -0.187892   0.715681
    3  N  1  S    0.326867   0.013453   0.045938  -0.274394   0.195791
    4  N  1  X    0.009751   0.511305  -0.042721  -0.034384   0.020627
    5  N  1  Y   -0.003093   0.016794   0.431914  -0.019709  -0.029224
    6  N  1  Z    0.084649  -0.038515  -0.011905   0.602191   0.615456
    7  N  1  X    0.007044   0.180891   0.007299   0.042611  -0.041651
    8  N  1  Y    0.019936   0.037855   0.312058   0.029657  -0.024991
    9  N  1  Z    0.023375   0.054261   0.035547   0.385360  -0.068497
   10  N  1 XX    0.004809   0.008893   0.009665  -0.011675  -0.040460
   11  N  1 YY   -0.005016  -0.009432  -0.009348  -0.010392   0.035480
   12  N  1 ZZ    0.000207   0.000538  -0.000317   0.022067   0.004980
   13  N  1 XY   -0.002606  -0.009001  -0.021496  -0.004124   0.020866
   14  N  1 XZ   -0.003030   0.014920   0.000277   0.002584   0.031105
   15  N  1 YZ    0.000763   0.000782   0.024980  -0.002880   0.022036
   16  H  2  S    0.187018  -0.141031   0.361472   0.103344  -0.422444
   17  H  2  S    0.007319  -0.004121   0.125655   0.032849  -0.055577
   18  H  2  X    0.026663  -0.008164   0.038559   0.012320  -0.032687
   19  H  2  Y   -0.016357   0.018482  -0.002812  -0.007283   0.039379
   20  H  2  Z   -0.006594   0.014558  -0.010669   0.018205  -0.020362
   21  H  3  S    0.184364  -0.183841  -0.359623   0.087083  -0.475127
   22  H  3  S    0.000751  -0.027649  -0.127374   0.020656  -0.063009
   23  H  3  X    0.022910   0.001552  -0.027033   0.011294  -0.021553
   24  H  3  Y    0.023048  -0.015532  -0.005415   0.015572  -0.052765
   25  H  3  Z   -0.013422   0.018419   0.022826   0.017313  -0.008724
   26  H  4  S    0.185852   0.386856   0.003455   0.128594  -0.505191
   27  H  4  S    0.001413   0.047933   0.015416   0.034971  -0.064211
   28  H  4  X   -0.034429  -0.039497   0.009612  -0.012955   0.059295
   29  H  4  Y    0.006957   0.015116   0.019664   0.003888  -0.013115
   30  H  4  Z   -0.003249  -0.009715   0.002044   0.021545  -0.012522

                      6          7

    1  N  1  S   -0.068981   0.005141
    2  N  1  S   -0.151027   0.019231
    3  N  1  S    0.131479  -0.058551
    4  N  1  X   -0.898687  -0.026552
    5  N  1  Y    0.025975   0.861616
    6  N  1  Z    0.018149  -0.058314
    7  N  1  X   -0.114151   0.006573
    8  N  1  Y    0.004194   0.002311
    9  N  1  Z    0.027266   0.020925
   10  N  1 XX   -0.010349  -0.024557
   11  N  1 YY    0.026306   0.023802
   12  N  1 ZZ   -0.015958   0.000755
   13  N  1 XY   -0.033328   0.041052
   14  N  1 XZ    0.050326   0.005281
   15  N  1 YZ   -0.014677  -0.020343
   16  H  2  S   -0.352867  -0.545609
   17  H  2  S   -0.078099  -0.185321
   18  H  2  X   -0.008657  -0.050706
   19  H  2  Y    0.040607   0.008472
   20  H  2  Z   -0.020028   0.009460
   21  H  3  S   -0.353717   0.582236
   22  H  3  S   -0.066940   0.194430
   23  H  3  X    0.022335   0.037378
   24  H  3  Y   -0.040084   0.014688
   25  H  3  Z   -0.004190  -0.018211
   26  H  4  S    0.693191   0.032249
   27  H  4  S    0.140276   0.002328
   28  H  4  X   -0.064558  -0.011112
   29  H  4  Y    0.014183  -0.007041
   30  H  4  Z    0.018114   0.011720

Actually Used Diabatic Molecualr Orbitals:

                      1          2          3          4          5

    1  N  1  S    0.006692  -0.021738  -0.014320  -0.012092   0.203467
    2  N  1  S    0.428799  -0.045168  -0.038557  -0.187892   0.715681
    3  N  1  S    0.326867   0.013453   0.045938  -0.274394   0.195791
    4  N  1  X    0.009751   0.511305  -0.042721  -0.034384   0.020627
    5  N  1  Y   -0.003093   0.016794   0.431914  -0.019709  -0.029224
    6  N  1  Z    0.084649  -0.038515  -0.011905   0.602191   0.615456
    7  N  1  X    0.007044   0.180891   0.007299   0.042611  -0.041651
    8  N  1  Y    0.019936   0.037855   0.312058   0.029657  -0.024991
    9  N  1  Z    0.023375   0.054261   0.035547   0.385360  -0.068497
   10  N  1 XX    0.004809   0.008893   0.009665  -0.011675  -0.040460
   11  N  1 YY   -0.005016  -0.009432  -0.009348  -0.010392   0.035480
   12  N  1 ZZ    0.000207   0.000538  -0.000317   0.022067   0.004980
   13  N  1 XY   -0.002606  -0.009001  -0.021496  -0.004124   0.020866
   14  N  1 XZ   -0.003030   0.014920   0.000277   0.002584   0.031105
[...]
 --------------------------------------------------

 -------------------------------------------
 - DM DIABT PT HAMILTONIAN MATRIX ELEMENTS -
 -------------------------------------------
                                            
 --- DIABATIC ENERGIES (DIAGONAL ELEMENT) ---       HARTREE            EV
 STATE #  1'S GMC-PT-LEVEL DIABATIC ENERGY=     -55.932114759       0.000000000
 STATE #  2'S GMC-PT-LEVEL DIABATIC ENERGY=     -55.671171351       7.100631800
 STATE #  3'S GMC-PT-LEVEL DIABATIC ENERGY=     -55.849008330       2.261441128

 --- DIABATIC COUPLINGS (OFF DIAGONAL ELEMENTS)---  HATREE            EV
 STATE #  1 &  2'S GMC-PT-LEVEL COUPLING  =       0.045057340       1.226072664
 STATE #  1 &  3'S GMC-PT-LEVEL COUPLING  =       0.021284288       0.579174970
 STATE #  2 &  3'S GMC-PT-LEVEL COUPLING  =      -0.027465986      -0.747387556

 ---------------------------------------
     - ROTATION TO DIABATIC STATES -    
 ---------------------------------------
 ROWS=ADIABATIC, COLUMNS=DIABATIC STATES

             1           2           3

    1    0.9489789  -0.1810541  -0.2581830
    2    0.2758285   0.0797796   0.9578903
    3    0.1528322   0.9802319  -0.1256490

 ---------------------------------------
          - DIABATIC STATES -           
 ---------------------------------------

 State #    1  Energy =     -55.932114759

      Det      Coef        Coefp    Occupancy (Ignoring core)
      ---      ----        ----    --------- --------- -----
        1    0.933630   -0.933630  222+000
       17    0.165683    0.165683  22-+00+
      701   -0.132444   -0.132444  22++00-
        4    0.106697   -0.106697  2-2++00
      176   -0.103412    0.103412  2+2+-00
        6   -0.069140    0.069140  22200+0
      717   -0.068178   -0.068178  220+002
      393   -0.062388   -0.062388  202+020
        3    0.054271    0.054271  22-++00
      141   -0.051745   -0.051745  22++-00
      402    0.046162   -0.046162  2+-+0-+
       16    0.042754   -0.042754  222000+
      708    0.041768   -0.041768  2-++0+-
      351    0.041678    0.041678  22++0-0
        7   -0.040597   -0.040597  22-+0+0
      215   -0.037981   -0.037981  022+200
      192    0.036148   -0.036148  2+-+-0+
      227   -0.034440   -0.034440  +2-+-0+
      704    0.034360   -0.034360  2-+++0-
      390    0.034333   -0.034333  -+2++-0
      705   -0.033722   -0.033722  -2+++0-
      218    0.033714   -0.033714  +-2+-+0
       51   -0.033239    0.033239  22+-00+
      212    0.030402    0.030402  +220200
      122    0.029069    0.029069  +2-200+
       23   -0.027627   -0.027627  2--++0+
      386   -0.027017    0.027017  2+2+0-0
      702    0.026962    0.026962  22+0+0-
     1051   -0.026864   -0.026864  2+++0--
      706    0.026319    0.026319  22+00+-
      773    0.025574   -0.025574  +2-++0-
      143   -0.024868   -0.024868  220+200
      159    0.024498   -0.024498  -2++-0+
       76    0.024084    0.024084  2+2-0+0
      424   -0.024027   -0.024027  +-2++-0
        5    0.024015    0.024015  -22++00
      911   -0.023622   -0.023622  2+++-0-
       29   -0.023618   -0.023618  2--+0++
       18    0.022752   -0.022752  2-2+00+
      387   -0.022749    0.022749  2+20+-0
      184   -0.022557   -0.022557  -+2+-+0
      113   -0.022542    0.022542  +-220+0
      179   -0.021060   -0.021060  202+200
      736   -0.021015    0.021015  2+2+00-
       20   -0.020367   -0.020367  22-0+0+

 State #    2  Energy =     -55.671171351

      Det      Coef        Coefp    Occupancy (Ignoring core)
      ---      ----        ----    --------- --------- -----
       71   -0.936012    0.936012  2+22000
      806   -0.134505   -0.134505  2++200-
       87    0.121394   -0.121394  2+-200+
       74   -0.077913    0.077913  2022+00
      822    0.074028   -0.074028  2+02002
      386    0.070502   -0.070502  2+2+0-0
       76   -0.065697   -0.065697  2+2-0+0
      246   -0.063505   -0.063505  2++2-00
       78   -0.063207    0.063207  20220+0
       73    0.063009   -0.063009  2+-2+00
       77   -0.053139    0.053139  2+-20+0
      106   -0.052967   -0.052967  +222000
      813    0.051374   -0.051374  20+20+-
      736   -0.050563    0.050563  2+2+00-
      122    0.049092    0.049092  +2-200+
       86    0.048983    0.048983  2+2-00+
       36    0.046230    0.046230  22+2000
      456    0.046029    0.046029  2++20-0
      111    0.039716   -0.039716  +22-0+0
      320    0.038926    0.038926  0+22200
      332   -0.038599    0.038599  ++-2-0+
      810   -0.037171   -0.037171  -++2+0-
       99   -0.035260    0.035260  20-20++
      317    0.034019   -0.034019  ++2-200
      807   -0.033771    0.033771  2++-+0-
       38   -0.033302    0.033302  2202+00
      180   -0.032796    0.032796  -+2+200
      192   -0.032039    0.032039  2+-+-0+
      177    0.031951   -0.031951  2+20200
      323   -0.031835    0.031835  +022-+0
      248    0.029808   -0.029808  2+02200
      809    0.029168   -0.029168  20+2+0-
       72   -0.028939   -0.028939  2+2-+00
       90    0.028770    0.028770  2+--+0+
      841   -0.028422    0.028422  +2+200-
      316    0.028097    0.028097  ++22-00
        6    0.027696   -0.027696  22200+0
      264    0.027410   -0.027410  -++2-0+
      878    0.026145    0.026145  ++-2+0-
      811   -0.025998    0.025998  2++-0+-
       51    0.025276   -0.025276  22+-00+
      402   -0.024399    0.024399  2+-+0-+
      911    0.023610    0.023610  2+++-0-
      109   -0.022638    0.022638  +-22+00
      183   -0.022590    0.022590  202+-+0
        4    0.021305   -0.021305  2-2++00
       54   -0.020671    0.020671  -2+200+
       17   -0.020220   -0.020220  22-+00+
      391    0.020141   -0.020141  2+20020
        9   -0.020030   -0.020030  -22+0+0

 State #    3  Energy =     -55.849008330

      Det      Coef        Coefp    Occupancy (Ignoring core)
      ---      ----        ----    --------- --------- -----
       36   -0.935832   -0.935832  22+2000
       39   -0.139692   -0.139692  2-+2+00
       52   -0.119771    0.119771  220200+
      246    0.116377    0.116377  2++2-00
       41   -0.100729    0.100729  22+-0+0
      351    0.093332    0.093332  22++0-0
      463    0.059299   -0.059299  20+2020
       38   -0.054523    0.054523  2202+00
      472   -0.050522   -0.050522  2+020-+
      701   -0.047082   -0.047082  22++00-
       51    0.046886   -0.046886  22+-00+
      106   -0.045772   -0.045772  +222000
      456    0.045206    0.045206  2++20-0
       71   -0.043751    0.043751  2+22000
       43   -0.039461   -0.039461  2-+20+0
       42    0.037899   -0.037899  22020+0
      285    0.037705   -0.037705  02+2200
      262   -0.036431   -0.036431  2+02-0+
       64    0.035528   -0.035528  2-020++
      297    0.035386   -0.035386  +202-0+
      157    0.035063   -0.035063  220+-0+
      460   -0.034661   -0.034661  -++2+-0
      288   -0.033604   -0.033604  +-+2-+0
      145   -0.032606   -0.032606  -2++200
      367    0.032127   -0.032127  220+0-+
      142    0.032083    0.032083  22+0200
       55   -0.031853   -0.031853  220-+0+
      282    0.031753    0.031753  +2+-200
      123    0.030937   -0.030937  +-2200+
       58    0.030081   -0.030081  2-02+0+
       53   -0.029946   -0.029946  2-+200+
      121   -0.028280    0.028280  +22-00+
       37   -0.028133    0.028133  22+-+00
       61   -0.024460   -0.024460  220-0++
      494    0.023855   -0.023855  +-+2+-0
      843   -0.023542   -0.023542  +202+0-
       73    0.023314   -0.023314  2+-2+00
       40   -0.023018    0.023018  -2+2+00
      457   -0.023009    0.023009  2++-+-0
      148   -0.022775   -0.022775  2-++-+0
      716    0.022678    0.022678  22+0002
      254    0.021535   -0.021535  -++2-+0
       86    0.021523    0.021523  2+2-00+
       16   -0.020958    0.020958  222000+
      859    0.020540   -0.020540  02+2002
       46    0.020133   -0.020133  2-+-++0

 ---------------------------------------
      - DIABATIC STATES IN CMO -        
 ---------------------------------------

 State #    1  Energy =     -55.932114759

      Det      Coef        Coefp    Occupancy (Ignoring core)
      ---      ----        ----    --------- --------- -----
        1    0.896494   -0.896494  222+000
       36   -0.355015   -0.355015  22+2000
       71   -0.148032    0.148032  2+22000
      143   -0.057003   -0.057003  220+200
      393   -0.053798   -0.053798  202+020
      717   -0.052658   -0.052658  220+002
      142    0.039511    0.039511  22+0200
        8   -0.034573    0.034573  2-2+0+0
      106   -0.034556   -0.034556  +222000
       17    0.033603    0.033603  22-+00+
      157    0.033131   -0.033131  220+-0+
      145   -0.032609   -0.032609  -2++200
        2    0.032491   -0.032491  2220+00
      179   -0.030834   -0.030834  202+200
      148   -0.027204   -0.027204  2-++-+0
      718   -0.026426    0.026426  2-++002
      752    0.026283    0.026283  2+-+002
      789   -0.026122   -0.026122  022+002
      703   -0.025486   -0.025486  220++0-
      719    0.025178    0.025178  -2++002
      787   -0.024933    0.024933  +2-+002
       51   -0.024598    0.024598  22+-00+
      215   -0.024075   -0.024075  022+200
      212    0.023979    0.023979  +220200
      213    0.023974   -0.023974  +2-+200
       38   -0.023686    0.023686  2202+00
       18    0.023035   -0.023035  2-2+00+
      463    0.022939   -0.022939  20+2020
      753   -0.022878   -0.022878  202+002
      122    0.021681    0.021681  +2-200+
      387   -0.021617    0.021617  2+20+-0
      108    0.021591    0.021591  +2-2+00
      158    0.021252    0.021252  2-++-0+
      390    0.021175   -0.021175  -+2++-0
      218    0.020830   -0.020830  +-2+-+0
       76    0.020408    0.020408  2+2-0+0
      144    0.020126   -0.020126  2-++200

 State #    2  Energy =     -55.671171351

      Det      Coef        Coefp    Occupancy (Ignoring core)
      ---      ----        ----    --------- --------- -----
       71   -0.958043    0.958043  2+22000
        1   -0.177409    0.177409  222+000
      822    0.058413   -0.058413  2+02002
      248    0.053822   -0.053822  2+02200
       36   -0.046641   -0.046641  22+2000
      177    0.040314   -0.040314  2+20200
      122    0.036577    0.036577  +2-200+
      111    0.033787   -0.033787  +22-0+0
       37    0.032105   -0.032105  22+-+00
      108    0.032103    0.032103  +2-2+00
      109   -0.031204    0.031204  +-22+00
        4    0.030307   -0.030307  2-2++00
      262   -0.030192   -0.030192  2+02-0+
      178    0.029943    0.029943  2+-+200
      808    0.029629   -0.029629  2+02+0-
        3   -0.029257   -0.029257  22-++00
      894    0.029198    0.029198  0+22002
      823   -0.028767    0.028767  20+2002
      320    0.027474    0.027474  0+22200
      180   -0.027372    0.027372  -+2+200
      247   -0.027058    0.027058  2++-200
      250   -0.026818   -0.026818  -++2200
      318    0.026386    0.026386  ++-2200
      892   -0.025981   -0.025981  ++-2002
      824    0.025847    0.025847  -++2002
      317    0.024961   -0.024961  ++2-200
       78   -0.023517    0.023517  20220+0
       52    0.023345   -0.023345  220200+
      391    0.022663   -0.022663  2+20020
      183   -0.022362    0.022362  202+-+0
      107    0.022217   -0.022217  +22-+00
      911    0.021682    0.021682  2+++-0-
      121   -0.021107    0.021107  +22-00+
      421   -0.020898   -0.020898  +22+0-0
       76    0.020813    0.020813  2+2-0+0
       74    0.020590   -0.020590  2022+00
       72   -0.020224   -0.020224  2+2-+00
       99   -0.020185    0.020185  20-20++

 State #    3  Energy =     -55.849008330

      Det      Coef        Coefp    Occupancy (Ignoring core)
      ---      ----        ----    --------- --------- -----
       36   -0.913435   -0.913435  22+2000
        1   -0.344247    0.344247  222+000
       71    0.107602   -0.107602  2+22000
      463    0.050585   -0.050585  20+2020
      822   -0.036721    0.036721  2+02002
      249    0.035616   -0.035616  20+2200
      717    0.030880    0.030880  220+002
      109    0.028835   -0.028835  +-22+00
      823    0.028581   -0.028581  20+2002
      859    0.027973   -0.027973  02+2002
      142    0.027973    0.027973  22+0200
      285    0.025211   -0.025211  02+2200
      108    0.024495    0.024495  +2-2+00
      808   -0.024211    0.024211  2+02+0-
      457   -0.024052    0.024052  2++-+-0
       58    0.023820   -0.023820  2-02+0+
      283   -0.023452   -0.023452  +202200
      282    0.023423    0.023423  +2+-200
      857    0.022858    0.022858  +202002
       55   -0.022838   -0.022838  220-+0+
      356    0.022116    0.022116  22+0020
      716    0.021786    0.021786  22+0002
       64    0.020392   -0.020392  2-020++
      393    0.020366    0.020366  202+020
      288   -0.020094   -0.020094  +-+2-+0
       39   -0.020080   -0.020080  2-+2+00

 ---------------------------------------
    -DIABATIC STATES IN PROTOTYPES-     
 ---------------------------------------

     STATE:    1
 Group Ref#    Coefficients
     1    1    0.953600
     2    2    0.002222
     3    3   -0.005394

WEIGHT OF LISTED PROTOTYPES:   90.94%

     STATE:    2
 Group Ref#    Coefficients
     1    1    0.002234
     2    2    0.948479
     3    3    0.000984

WEIGHT OF LISTED PROTOTYPES:   89.96%

     STATE:    3
 Group Ref#    Coefficients
     1    1   -0.005393
     2    2    0.000978
     3    3    0.953819

WEIGHT OF LISTED PROTOTYPES:   90.98%

     DIRECT MAX. DIABATIZATION FINISHED    
 CPU     0: STEP CPU TIME=     0.24 TOTAL CPU TIME=         13.8 (      0.2 MIN)
 TOTAL WALL CLOCK TIME=         13.8 SECONDS, CPU UTILIZATION IS    99.86%

DIABATS FOR SPIN-ORBIT CALCULATION ARE READY

TRANSITION DIPOLES BETWEEN ADIABATS (in A.U.):

STATE PAIR      X         Y         Z
    1    1 -0.303676 -0.120854  0.691157
    2    1 -0.030159 -0.022555  0.131969
    2    2 -0.133168 -0.242884  0.308138
    3    1  0.129751 -0.028475  0.073966
    3    2 -0.060690  0.126341 -0.000565
    3    3 -0.586896 -0.157037  0.258933


TRANSITION DIPOLES BETWEEN DIABATS (in A.U.):

STATE PAIR      X         Y         Z
    1    1 -0.280586 -0.140399  0.742415
    2    1  0.060501  0.001313 -0.003184
    2    2 -0.629401 -0.125878  0.243260
    3    1 -0.002150 -0.031807  0.005863
    3    2 -0.032499  0.123428 -0.019203
    3    3 -0.113753 -0.254497  0.272552

TRANSITION DIPOLES BETWEEN DIRECT MAX. DIABATS (in A.U.):

STATE PAIR      X         Y         Z
    1    1 -0.280587 -0.140399  0.742415
    2    1  0.060503  0.001313 -0.003181
    2    2 -0.629400 -0.125878  0.243260
    3    1 -0.002150 -0.031808  0.005864
    3    2 -0.032497  0.123427 -0.019203
    3    3 -0.113752 -0.254498  0.272552
 No $TRANST Group Found.
 Quit without doing spin-orbit coupling
 ..... DONE WITH MP2 ENERGY .....
 CPU     0: STEP CPU TIME=     0.01 TOTAL CPU TIME=         13.8 (      0.2 MIN)
 TOTAL WALL CLOCK TIME=         13.8 SECONDS, CPU UTILIZATION IS    99.93%
            100000000  WORDS OF DYNAMIC MEMORY USED
 EXECUTION OF GAMESS TERMINATED NORMALLY Wed Nov 16 18:58:11 2022
 DDI: 715512 bytes (0.7 MB / 0 MWords) used by master data server.

 ----------------------------------------
 CPU timing information for all processes
 ========================================
 0: 13.542 + 0.308 = 13.850
 ----------------------------------------
Note: The following floating-point exceptions are signalling: IEEE_DENORMAL
 ddikick.x: exited gracefully.
unset echo
----- accounting info -----
Files used on the master node io002 were:
-rw-r--r-- 1 bsonghao nooijen   20711 Nov 16 18:57 /scratch/bsonghao/nh3_diabatization_2d_at_mode_7_8_dist-0.3_-0.6.F05
-rw-r--r-- 1 bsonghao nooijen  363520 Nov 16 18:58 /scratch/bsonghao/nh3_diabatization_2d_at_mode_7_8_dist-0.3_-0.6.F09
-rw-r--r-- 1 bsonghao nooijen 1995920 Nov 16 18:58 /scratch/bsonghao/nh3_diabatization_2d_at_mode_7_8_dist-0.3_-0.6.F10
-rw-r--r-- 1 bsonghao nooijen  131264 Nov 16 18:58 /scratch/bsonghao/nh3_diabatization_2d_at_mode_7_8_dist-0.3_-0.6.F13
-rw-r--r-- 1 bsonghao nooijen  180312 Nov 16 18:58 /scratch/bsonghao/nh3_diabatization_2d_at_mode_7_8_dist-0.3_-0.6.F15
-rw-r--r-- 1 bsonghao nooijen       0 Nov 16 18:57 /scratch/bsonghao/nh3_diabatization_2d_at_mode_7_8_dist-0.3_-0.6.F16
-rw-r--r-- 1 bsonghao nooijen    9808 Nov 16 18:58 /scratch/bsonghao/nh3_diabatization_2d_at_mode_7_8_dist-0.3_-0.6.F70
-rw-r--r-- 1 bsonghao nooijen    9808 Nov 16 18:58 /scratch/bsonghao/nh3_diabatization_2d_at_mode_7_8_dist-0.3_-0.6.F71
-rw-r--r-- 1 bsonghao nooijen   19608 Nov 16 18:58 /scratch/bsonghao/nh3_diabatization_2d_at_mode_7_8_dist-0.3_-0.6.F72
-rw-r--r-- 1 bsonghao nooijen   19608 Nov 16 18:58 /scratch/bsonghao/nh3_diabatization_2d_at_mode_7_8_dist-0.3_-0.6.F73
-rw-r--r-- 1 bsonghao nooijen 1920824 Nov 16 18:58 /scratch/bsonghao/nh3_diabatization_2d_at_mode_7_8_dist-0.3_-0.6.F74
-rw-r--r-- 1 bsonghao nooijen       0 Nov 16 18:57 /scratch/bsonghao/nh3_diabatization_2d_at_mode_7_8_dist-0.3_-0.6.F75
-rw-r--r-- 1 bsonghao nooijen   58848 Nov 16 18:58 /scratch/bsonghao/nh3_diabatization_2d_at_mode_7_8_dist-0.3_-0.6.F76
-rw-r--r-- 1 bsonghao nooijen       0 Nov 16 18:57 /scratch/bsonghao/nh3_diabatization_2d_at_mode_7_8_dist-0.3_-0.6.F77
-rw-r--r-- 1 bsonghao nooijen    1864 Nov 16 18:58 /scratch/bsonghao/nh3_diabatization_2d_at_mode_7_8_dist-0.3_-0.6.F78
-rw-r--r-- 1 bsonghao nooijen   39208 Nov 16 18:58 /scratch/bsonghao/nh3_diabatization_2d_at_mode_7_8_dist-0.3_-0.6.F79
-rw-r--r-- 1 bsonghao nooijen     104 Nov 16 18:58 /scratch/bsonghao/nh3_diabatization_2d_at_mode_7_8_dist-0.3_-0.6.F80
-rw-r--r-- 1 bsonghao nooijen   13472 Nov 16 18:58 /scratch/bsonghao/nh3_diabatization_2d_at_mode_7_8_dist-0.3_-0.6.F81
-rw-r--r-- 1 bsonghao nooijen      16 Nov 16 18:58 /scratch/bsonghao/nh3_diabatization_2d_at_mode_7_8_dist-0.3_-0.6.F82
-rw-r--r-- 1 bsonghao nooijen   19216 Nov 16 18:58 /scratch/bsonghao/nh3_diabatization_2d_at_mode_7_8_dist-0.3_-0.6.F83
-rw-r--r-- 1 bsonghao nooijen   29712 Nov 16 18:58 /scratch/bsonghao/nh3_diabatization_2d_at_mode_7_8_dist-0.3_-0.6.F84
-rw-r--r-- 1 bsonghao nooijen  401576 Nov 16 18:58 /scratch/bsonghao/nh3_diabatization_2d_at_mode_7_8_dist-0.3_-0.6.F85
-rw-r--r-- 1 bsonghao nooijen  903672 Nov 16 18:58 /scratch/bsonghao/nh3_diabatization_2d_at_mode_7_8_dist-0.3_-0.6.F86
-rw-r--r-- 1 bsonghao nooijen     656 Nov 16 18:58 /scratch/bsonghao/nh3_diabatization_2d_at_mode_7_8_dist-0.3_-0.6.F87
-rw-r--r-- 1 bsonghao nooijen   39152 Nov 16 18:58 /scratch/bsonghao/nh3_diabatization_2d_at_mode_7_8_dist-0.3_-0.6.F88
-rw-r--r-- 1 bsonghao nooijen     240 Nov 16 18:58 /scratch/bsonghao/nh3_diabatization_2d_at_mode_7_8_dist-0.3_-0.6.F89
-rw-r--r-- 1 bsonghao nooijen       0 Nov 16 18:57 /scratch/bsonghao/nh3_diabatization_2d_at_mode_7_8_dist-0.3_-0.6.F90
-rw-r--r-- 1 bsonghao nooijen   13760 Nov 16 18:58 /scratch/bsonghao/nh3_diabatization_2d_at_mode_7_8_dist-0.3_-0.6.F91
-rw-r--r-- 1 bsonghao nooijen   22776 Nov 16 18:58 /scratch/bsonghao/nh3_diabatization_2d_at_mode_7_8_dist-0.3_-0.6.F92
-rw-r--r-- 1 bsonghao nooijen   23168 Nov 16 18:58 /scratch/bsonghao/nh3_diabatization_2d_at_mode_7_8_dist-0.3_-0.6.F93
-rw-r--r-- 1 bsonghao nooijen   22776 Nov 16 18:58 /scratch/bsonghao/nh3_diabatization_2d_at_mode_7_8_dist-0.3_-0.6.F94
-rw-r--r-- 1 bsonghao nooijen   13760 Nov 16 18:58 /scratch/bsonghao/nh3_diabatization_2d_at_mode_7_8_dist-0.3_-0.6.F95
-rw-r--r-- 1 bsonghao nooijen   29440 Nov 16 18:58 /scratch/bsonghao/nh3_diabatization_2d_at_mode_7_8_dist-0.3_-0.6.F96
-rw-r--r-- 1 bsonghao nooijen    1184 Nov 16 18:58 /scratch/bsonghao/nh3_diabatization_2d_at_mode_7_8_dist-0.3_-0.6.F97
-rw-r--r-- 1 bsonghao nooijen    9808 Nov 16 18:58 /scratch/bsonghao/nh3_diabatization_2d_at_mode_7_8_dist-0.3_-0.6.F98
-rw-r--r-- 1 bsonghao nooijen   30264 Nov 16 18:58 /scratch/bsonghao/nh3_diabatization_2d_at_mode_7_8_dist-0.3_-0.6.F99
ls: No match.
ls: No match.
ls: No match.
Wed 16 Nov 2022 06:58:14 PM EST
0.278u 0.053s 0:17.22 1.8%	0+0k 48+224io 0pf+0w
