----- GAMESS execution script 'rungms' -----
This job is running on host io002
under operating system Linux at Wed 16 Nov 2022 08:16:16 PM EST
Available scratch disk space (Kbyte units) at beginning of the job is
Filesystem       1K-blocks       Used   Available Use% Mounted on
/dev/sdc1      15378471580 3278917120 11318349060  23% /scratch
GAMESS temporary binary files will be written to /scratch/bsonghao
GAMESS supplementary output files will be written to /home/bsonghao/.gamess_ascii_files/267638
Copying input file nh3_diabatization_2d_at_mode_7_8_dist0.7_-0.2.inp to your run's scratch directory...
cp nh3_diabatization_2d_at_mode_7_8_dist0.7_-0.2.inp /scratch/bsonghao/nh3_diabatization_2d_at_mode_7_8_dist0.7_-0.2.F05
unset echo
/home/bjb2chen/gamess/ddikick.x /home/bjb2chen/gamess/gamess.00.x nh3_diabatization_2d_at_mode_7_8_dist0.7_-0.2 -ddi 1 1 io002 -scr /scratch/bsonghao

 Distributed Data Interface kickoff program.
 Initiating 1 compute processes on 1 nodes to run the following command:
 /home/bjb2chen/gamess/gamess.00.x nh3_diabatization_2d_at_mode_7_8_dist0.7_-0.2 

          ******************************************************
          *         GAMESS VERSION = 02 AUG 2018 (R2)         *
          *             FROM IOWA STATE UNIVERSITY             *
          * M.W.SCHMIDT, K.K.BALDRIDGE, J.A.BOATZ, S.T.ELBERT, *
          *   M.S.GORDON, J.H.JENSEN, S.KOSEKI, N.MATSUNAGA,   *
          *          K.A.NGUYEN, S.J.SU, T.L.WINDUS,           *
          *       TOGETHER WITH M.DUPUIS, J.A.MONTGOMERY       *
          *         J.COMPUT.CHEM.  14, 1347-1363(1993)        *
          **************** 64 BIT LINUX VERSION ****************

  SINCE 1993, STUDENTS AND POSTDOCS WORKING AT IOWA STATE UNIVERSITY
  AND ALSO IN THEIR VARIOUS JOBS AFTER LEAVING ISU HAVE MADE IMPORTANT
  CONTRIBUTIONS TO THE CODE:
     IVANA ADAMOVIC, CHRISTINE AIKENS, YURI ALEXEEV, POOJA ARORA,
     ANDREY ASADCHEV, ROB BELL, PRADIPTA BANDYOPADHYAY, JONATHAN BENTZ,
     BRETT BODE, KURT BRORSEN, CALEB CARLIN, GALINA CHABAN, WEI CHEN,
     CHEOL HO CHOI, PAUL DAY, ALBERT DEFUSCO, NUWAN DESILVA, TIM DUDLEY,
     DMITRI FEDOROV, ALEX FINDLATER, GRAHAM FLETCHER, MARK FREITAG,
     KURT GLAESEMANN, ANASTASIA GUININA,
     DAN KEMP, GRANT MERRILL, NORIYUKI MINEZAWA, JONATHAN MULLIN,
     TAKESHI NAGATA, SEAN NEDD, HEATHER NETZLOFF, BOSILJKA NJEGIC, RYAN OLSON,
     MIKE PAK, BUU PHAM,
     SPENCER PRUITT, LUKE ROSKOP, JIM SHOEMAKER, LYUDMILA SLIPCHENKO,
     TONY SMITH, SAROM SOK LEANG, JIE SONG, TETSUYA TAKETSUGU, SIMON WEBB,
     PENG XU, SOOHAENG YOO, FEDERICO ZAHARIEV

  ADDITIONAL CODE HAS BEEN PROVIDED BY COLLABORATORS IN OTHER GROUPS:
     IOWA STATE UNIVERSITY:
          JOE IVANIC, AARON WEST, LAIMUTIS BYTAUTAS, KLAUS RUEDENBERG
     UNIVERSITY OF TOKYO: KIMIHIKO HIRAO, TAKAHITO NAKAJIMA,
          TAKAO TSUNEDA, MUNEAKI KAMIYA, SUSUMU YANAGISAWA,
          KIYOSHI YAGI, MAHITO CHIBA, SEIKEN TOKURA, NAOAKI KAWAKAMI
     UNIVERSITY OF AARHUS: FRANK JENSEN
     UNIVERSITY OF IOWA: VISVALDAS KAIRYS, HUI LI
     NATIONAL INST. OF STANDARDS AND TECHNOLOGY: WALT STEVENS, DAVID GARMER
     UNIVERSITY OF PISA: BENEDETTA MENNUCCI, JACOPO TOMASI
     UNIVERSITY OF MEMPHIS: HENRY KURTZ, PRAKASHAN KORAMBATH
     UNIVERSITY OF ALBERTA: TOBY ZENG, MARIUSZ KLOBUKOWSKI
     UNIVERSITY OF NEW ENGLAND: MARK SPACKMAN
     MIE UNIVERSITY: HIROAKI UMEDA
     NAT. INST. OF ADVANCED INDUSTRIAL SCIENCE AND TECHNOLOGY: KAZUO KITAURA
     MICHIGAN STATE UNIVERSITY:
          KAROL KOWALSKI, MARTA WLOCH, JEFFREY GOUR, JESSE LUTZ,
          WEI LI, JUN SHEN, J. EMILIANO DEUSTUA, PIOTR PIECUCH
     UNIVERSITY OF MINNESOTA:
          YINAN SHU
     UNIVERSITY OF SILESIA: MONIKA MUSIAL, STANISLAW KUCHARSKI
     FACULTES UNIVERSITAIRES NOTRE-DAME DE LA PAIX:
          OLIVIER QUINET, BENOIT CHAMPAGNE
     UNIVERSITY OF CALIFORNIA - SANTA BARBARA: BERNARD KIRTMAN
     INSTITUTE FOR MOLECULAR SCIENCE:
          KAZUYA ISHIMURA, MICHIO KATOUDA, AND SHIGERU NAGASE
     UNIVERSITY OF NOTRE DAME: ANNA POMOGAEVA, DAN CHIPMAN
     KYUSHU UNIVERSITY:
          HARUYUKI NAKANO,
          FENG LONG GU, JACEK KORCHOWIEC, MARCIN MAKOWSKI, AND YURIKO AOKI,
          HIROTOSHI MORI AND EISAKU MIYOSHI
     PENNSYLVANIA STATE UNIVERSITY:
          TZVETELIN IORDANOV, CHET SWALINA, JONATHAN SKONE,
          SHARON HAMMES-SCHIFFER
     WASEDA UNIVERSITY:
          MASATO KOBAYASHI, TOMOKO AKAMA, TSUGUKI TOUMA,
          TAKESHI YOSHIKAWA, YASUHIRO IKABATA, JUNJI SEINO,
          YUYA NAKAJIMA, HIROMI NAKAI
     NANJING UNIVERSITY: SHUHUA LI
     UNIVERSITY OF NEBRASKA:
          PEIFENG SU, DEJUN SI, NANDUN THELLAMUREGE, YALI WANG, HUI LI
     UNIVERSITY OF ZURICH: ROBERTO PEVERATI, KIM BALDRIDGE
     N. COPERNICUS UNIVERSITY AND JACKSON STATE UNIVERSITY:
          MARIA BARYSZ
     UNIVERSITY OF COPENHAGEN: Jimmy Kromann, CASPER STEINMANN
     TOKYO INSTITUTE OF TECHNOLOGY: HIROYA NAKATA
     NAGOYA UNIVERSITY: YOSHIO NISHIMOTO, STEPHAN IRLE
     MOSCOW STATE UNIVERSITY: VLADIMIR MIRONOV

 EXECUTION OF GAMESS BEGUN Wed Nov 16 20:16:17 2022

            ECHO OF THE FIRST FEW INPUT CARDS -
 INPUT CARD> $system kdiag=3 mwords=100 memddi=1000 parall=.t. $end                         
 INPUT CARD> $contrl runtyp=energy ispher=1 $end                                            
 INPUT CARD> $contrl icut=9 itol=20 inttyp=rysquad qmttol=1.0d-05 nosym=1 $end              
 INPUT CARD> $scf    npunch=2 conv=1.0d-06 dirscf=.t.      $end                             
 INPUT CARD> $contrl scftyp=mcscf  mult=2 maxit=200 icharg=1 mplevl=2 $end                  
 INPUT CARD> $guess  guess=moread norb=29 purify=.t. $end                                   
 INPUT CARD> $basis  gbasis=ccd $end                                                        
 INPUT CARD> $mcscf  cistep=gmcci fullnr=.t. finci=mos                                      
 INPUT CARD>         acurcy=1.d-6 maxit=100 $end                                            
 INPUT CARD> $trans  dirtrf=.t. $end                                                        
 INPUT CARD> $mrmp   mrpt=gmcpt rdvecs=.f. $end                                             
 INPUT CARD> $gmcpt  nmofzc=0 nmodoc=1 nmoact=7 nelact=7 stsym(1)=A                         
 INPUT CARD>         reftyp=ormas nspace=1 mstart(1)=2 mine(1)=7 maxe(1)=7                  
 INPUT CARD>         kstate(1)=1,1,1                                                        
 INPUT CARD>         wstate(1)=1,1,1                                                        
 INPUT CARD>         iwgt=0 thrwgt=-1.0 krot=.f. kszdoe=.f. knospn=.f.                      
 INPUT CARD>         thrde=-1.0 edshft=0.02 $end                                            
 INPUT CARD> $data                                                                          
 INPUT CARD> NH3+ 3 states calculation at NH3 structure.                                    
 INPUT CARD> c1                                                                             
 INPUT CARD>N 7.0 0.012457835999999996 -0.043602321 -0.1693805762                           
 INPUT CARD>H 1.0 -0.299664701 0.7770637178 0.4428822681                                    
 INPUT CARD>H 1.0 -0.8346419159999999 -0.6820249298000001 0.1228319471                      
 INPUT CARD>H 1.0 0.961201624 0.510830204 0.20366481510000004                               
 INPUT CARD>$end                                                                            
 INPUT CARD>--- OPTIMIZED RHF      MO-S --- GENERATED AT Mon Nov 14 16:47:08 2022           
 INPUT CARD>E=      -56.3825050291, E(NUC)=   11.8429239490                                 
 INPUT CARD> $VEC                                                                           
 INPUT CARD> 1  1-1.00134066E+00-2.25158504E-03 3.44925845E-03 0.00000000E+00 0.00000000E+00
 INPUT CARD> 1  2-2.13170927E-03 0.00000000E+00 0.00000000E+00 6.57129898E-04-6.87950443E-05
 INPUT CARD> 1  3-6.87950443E-05 1.37590089E-04 0.00000000E+00 0.00000000E+00 0.00000000E+00
 INPUT CARD> 1  4 3.25502815E-04-4.84772356E-04 3.62525460E-04-6.27912517E-04-3.45956485E-04
 INPUT CARD> 1  5 3.25502815E-04-4.84772356E-04 3.62525460E-04 6.27912517E-04-3.45956485E-04
 INPUT CARD> 1  6 3.25502815E-04-4.84772356E-04-7.25050921E-04 0.00000000E+00-3.45956485E-04
 INPUT CARD> 2  1 1.31286642E-02-4.05911371E-01-2.82090992E-01 0.00000000E+00 0.00000000E+00
 INPUT CARD> 2  2-7.71489043E-02 0.00000000E+00 0.00000000E+00 9.73717494E-03 6.62450916E-04
 INPUT CARD> 2  3 6.62450916E-04-1.32490183E-03 0.00000000E+00 0.00000000E+00 0.00000000E+00
 INPUT CARD> 2  4-1.96090317E-01-1.96656153E-02-1.74855877E-02 3.02859263E-02 8.68214399E-03
 INPUT CARD> 2  5-1.96090317E-01-1.96656153E-02-1.74855877E-02-3.02859263E-02 8.68214399E-03
 INPUT CARD> 2  6-1.96090317E-01-1.96656153E-02 3.49711754E-02 0.00000000E+00 8.68214399E-03
 INPUT CARD> 3  1 0.00000000E+00 0.00000000E+00 0.00000000E+00 4.48608762E-01 0.00000000E+00
 INPUT CARD> 3  2 0.00000000E+00 2.18692520E-01 0.00000000E+00 0.00000000E+00 1.30198027E-02
 INPUT CARD> 3  3-1.30198027E-02 0.00000000E+00 0.00000000E+00 2.71832968E-02 0.00000000E+00
 INPUT CARD> 3  4-1.85332726E-01-7.03958951E-02 8.47929477E-03 1.95242443E-02 8.32835058E-03
 INPUT CARD> 3  5-1.85332726E-01-7.03958951E-02 8.47929477E-03-1.95242443E-02 8.32835058E-03
 INPUT CARD> 3  6 3.70665453E-01 1.40791790E-01-2.53376884E-02 0.00000000E+00-1.66567012E-02
 INPUT CARD> 4  1 0.00000000E+00 0.00000000E+00 0.00000000E+00 0.00000000E+00 4.48608762E-01
 INPUT CARD> 4  2 0.00000000E+00 0.00000000E+00 2.18692520E-01 0.00000000E+00 0.00000000E+00
 INPUT CARD> 4  3 0.00000000E+00 0.00000000E+00-1.50339731E-02 0.00000000E+00 2.71832968E-02
 INPUT CARD> 4  4 3.21005698E-01 1.21929267E-01 1.95242443E-02-1.40653607E-02-1.44251263E-02
  100000000 WORDS OF MEMORY AVAILABLE

     BASIS OPTIONS
     -------------
     GBASIS=CCD          IGAUSS=       0      POLAR=NONE    
     NDFUNC=       0     NFFUNC=       0     DIFFSP=       F
     NPFUNC=       0      DIFFS=       F     BASNAM=        


     RUN TITLE
     ---------
  NH3+ 3 states calculation at NH3 structure.                                    

 THE POINT GROUP OF THE MOLECULE IS C1      
 THE ORDER OF THE PRINCIPAL AXIS IS     0

 ATOM      ATOMIC                      COORDINATES (BOHR)
           CHARGE         X                   Y                   Z
 N           7.0     0.0235418964       -0.0823964391       -0.3200828767
 H           1.0    -0.5662841731        1.4684375016        0.8369261315
 H           1.0    -1.5772445191       -1.2888402341        0.2321187226
 H           1.0     1.8164076883        0.9653291118        0.3848706939

          INTERNUCLEAR DISTANCES (ANGS.)
          ------------------------------

                1 N          2 H          3 H          4 H     

   1 N       0.0000000    1.0704107 *  1.1002498 *  1.1604624 *
   2 H       1.0704107 *  0.0000000    1.5866860 *  1.3106827 *
   3 H       1.1002498 *  1.5866860 *  0.0000000    2.1574270 *
   4 H       1.1604624 *  1.3106827 *  2.1574270 *  0.0000000  

  * ... LESS THAN  3.000


     ATOMIC BASIS SET
     ----------------
 THE CONTRACTED PRIMITIVE FUNCTIONS HAVE BEEN UNNORMALIZED
 THE CONTRACTED BASIS FUNCTIONS ARE NOW NORMALIZED TO UNITY

  SHELL TYPE  PRIMITIVE        EXPONENT          CONTRACTION COEFFICIENT(S)

 N         

      1   S       1          9046.0000000    0.000699617413
      1   S       2          1357.0000000    0.005386054630
      1   S       3           309.3000000    0.027391021189
      1   S       4            87.7300000    0.103150591982
      1   S       5            28.5600000    0.278570663317
      1   S       6            10.2100000    0.448294849454
      1   S       7             3.8380000    0.278085928395
      1   S       8             0.7466000    0.015431561233

      2   S       9          9046.0000000   -0.000304990096
      2   S      10          1357.0000000   -0.002408026379
      2   S      11           309.3000000   -0.011944448725
      2   S      12            87.7300000   -0.048925992909
      2   S      13            28.5600000   -0.134472724725
      2   S      14            10.2100000   -0.315112577700
      2   S      15             3.8380000   -0.242857832550
      2   S      16             0.7466000    1.094382206854

      3   S      17             0.2248000    1.000000000000

      4   P      18            13.5500000    0.058905676772
      4   P      19             2.9170000    0.320461106714
      4   P      20             0.7973000    0.753042061792

      5   P      21             0.2185000    1.000000000000

      6   D      22             0.8170000    1.000000000000

 H         

      7   S      23            13.0100000    0.033498726390
      7   S      24             1.9620000    0.234800801174
      7   S      25             0.4446000    0.813682957883

      8   S      26             0.1220000    1.000000000000

      9   P      27             0.7270000    1.000000000000

 H         

     10   S      28            13.0100000    0.033498726390
     10   S      29             1.9620000    0.234800801174
     10   S      30             0.4446000    0.813682957883

     11   S      31             0.1220000    1.000000000000

     12   P      32             0.7270000    1.000000000000

 H         

     13   S      33            13.0100000    0.033498726390
     13   S      34             1.9620000    0.234800801174
     13   S      35             0.4446000    0.813682957883

     14   S      36             0.1220000    1.000000000000

     15   P      37             0.7270000    1.000000000000

 TOTAL NUMBER OF BASIS SET SHELLS             =   15
 NUMBER OF CARTESIAN GAUSSIAN BASIS FUNCTIONS =   30
 NOTE: THIS RUN WILL RESTRICT THE MO VARIATION SPACE TO SPHERICAL HARMONICS.
 THE NUMBER OF ORBITALS KEPT IN THE VARIATIONAL SPACE WILL BE PRINTED LATER.
 NUMBER OF ELECTRONS                          =    9
 CHARGE OF MOLECULE                           =    1
 SPIN MULTIPLICITY                            =    2
 NUMBER OF OCCUPIED ORBITALS (ALPHA)          =    5
 NUMBER OF OCCUPIED ORBITALS (BETA )          =    4
 TOTAL NUMBER OF ATOMS                        =    4
 THE NUCLEAR REPULSION ENERGY IS       11.0018789483

     $CONTRL OPTIONS
     ---------------
 SCFTYP=MCSCF        RUNTYP=ENERGY       EXETYP=RUN     
 MPLEVL=       2     CITYP =NONE         CCTYP =NONE         VBTYP =NONE    
 DFTTYP=NONE         TDDFT =NONE    
 MULT  =       2     ICHARG=       1     NZVAR =       0     COORD =UNIQUE  
 PP    =NONE         RELWFN=NONE         LOCAL =NONE         NUMGRD=       F
 ISPHER=       1     NOSYM =       1     MAXIT =     200     UNITS =ANGS    
 PLTORB=       F     MOLPLT=       F     AIMPAC=       F     FRIEND=        
 NPRINT=       7     IREST =       0     GEOM  =INPUT   
 NORMF =       0     NORMP =       0     ITOL  =      20     ICUT  =       9
 INTTYP=RYSQUAD      GRDTYP=BEST         QMTTOL= 1.0E-05

     $SYSTEM OPTIONS
     ---------------
  REPLICATED MEMORY=   100000000 WORDS (ON EVERY NODE).
 DISTRIBUTED MEMDDI=        1000 MILLION WORDS IN AGGREGATE,
 MEMDDI DISTRIBUTED OVER   1 PROCESSORS IS  1000000000 WORDS/PROCESSOR.
 TOTAL MEMORY REQUESTED ON EACH PROCESSOR=  1100000000 WORDS.
 TIMLIM=      525600.00 MINUTES, OR     365.0 DAYS.
 PARALL= T  BALTYP=  DLB     KDIAG=    3  COREFL= F
 MXSEQ2=     300 MXSEQ3=     150  mem10=         0

          ----------------
          PROPERTIES INPUT
          ----------------

     MOMENTS            FIELD           POTENTIAL          DENSITY
 IEMOM =       1   IEFLD =       0   IEPOT =       0   IEDEN =       0
 WHERE =COMASS     WHERE =NUCLEI     WHERE =NUCLEI     WHERE =NUCLEI  
 OUTPUT=BOTH       OUTPUT=BOTH       OUTPUT=BOTH       OUTPUT=BOTH    
 IEMINT=       0   IEFINT=       0                     IEDINT=       0
                                                       MORB  =       0

     -------------------------------
     INTEGRAL TRANSFORMATION OPTIONS
     -------------------------------
     NWORD  =            0
     CUTOFF = 1.0E-09     MPTRAN =       0
     DIRTRF =       T     AOINTS =DUP     

          ----------------------
          MCSCF INPUT PARAMETERS
          ----------------------
 CONVERGER SELECTION: FOCAS = F  SOSCF = F  FULLNR = T  QUD = F  JACOBI = F
 SECULAR EQUATION METHOD CISTEP = GMCCI   
 --- GENERAL INPUT OPTIONS:
 MAXIT =     100  MICIT =       1  ACURCY= 1.000E-06
 DAMP  =   0.000  CANONC=       T  ENGTOL= 1.000E-10
 EKT   =       F  NPUNCH=       2  NWORD =         0
 REGENERATE CI AFTER CONVERGENCE = NONE    
 DIABATIZATION AFTER CONVERGENCE =        F
 --- INPUT FOR FULLNR CONVERGER:
 METHOD=DM2       FORS  =       F  DROPC =       T
 LINSER=       F  FCORE =       F  NORB  =      30

          ----------------------
          INTEGRAL INPUT OPTIONS
          ----------------------
 NOPK  =       1 NORDER=       0 SCHWRZ=       T

 ------------------------------------------
 MULTIREFERENCE PERTURBATION THEORY CONTROL
 ------------------------------------------
 MRPT=GMCPT    READ CONVERGED MCSCF VECTORS= F


     ------------------------------------------
     THE POINT GROUP IS C1 , NAXIS= 1, ORDER= 1
     ------------------------------------------

 -- VARIATIONAL SPACE WILL BE RESTRICTED TO PURE SPHERICAL HARMONICS ONLY --
 AFTER EXCLUDING CONTAMINANT COMBINATIONS FROM THE CARTESIAN GAUSSIAN BASIS
 SET, THE NUMBER OF SPHERICAL HARMONICS KEPT IN THE VARIATION SPACE IS   29

     DIMENSIONS OF THE SYMMETRY SUBSPACES ARE
 A   =   29

 ..... DONE SETTING UP THE RUN .....
 CPU     0: STEP CPU TIME=     0.03 TOTAL CPU TIME=          0.0 (      0.0 MIN)
 TOTAL WALL CLOCK TIME=          0.0 SECONDS, CPU UTILIZATION IS    75.00%

          ********************
          1 ELECTRON INTEGRALS
          ********************
 TIME TO DO   DIPOLE INTEGRALS=      0.00
 ...... END OF ONE-ELECTRON INTEGRALS ......
 CPU     0: STEP CPU TIME=     0.01 TOTAL CPU TIME=          0.0 (      0.0 MIN)
 TOTAL WALL CLOCK TIME=          0.0 SECONDS, CPU UTILIZATION IS   100.00%

          -------------
          GUESS OPTIONS
          -------------
          GUESS =MOREAD            NORB  =      29          NORDER=       0
          MIX   =       F          PRTMO =       F          PUNMO =       F
          TOLZ  = 1.0E-08          TOLE  = 1.0E-05
          SYMDEN=       F          PURIFY=       T

 INITIAL GUESS ORBITALS GENERATED BY MOREAD   ROUTINE.

 STATISTICS FOR GENERATION OF SYMMETRY ORBITAL -Q- MATRIX
 NUMBER OF CARTESIAN ATOMIC ORBITALS=         30
 NUMBER OF SPHERICAL CONTAMINANTS DROPPED=     1
 NUMBER OF LINEARLY DEPENDENT MOS DROPPED=     0
 TOTAL NUMBER OF MOS IN VARIATION SPACE=      29
 ORBITAL PURIFICATION WILL OCCUR

 SYMMETRIES FOR INITIAL GUESS ORBITALS FOLLOW.   BOTH SET(S).
     5 ORBITALS ARE OCCUPIED (    1 CORE ORBITALS).
     1=A        2=A        3=A        4=A        5=A        6=A        7=A   
     8=A        9=A       10=A       11=A       12=A       13=A       14=A   
    15=A       16=A       17=A       18=A       19=A       20=A       21=A   
    22=A       23=A       24=A       25=A       26=A       27=A       28=A   
    29=A   
 ...... END OF INITIAL ORBITAL SELECTION ......
 CPU     0: STEP CPU TIME=     0.00 TOTAL CPU TIME=          0.0 (      0.0 MIN)
 TOTAL WALL CLOCK TIME=          0.1 SECONDS, CPU UTILIZATION IS    80.00%

                    ----------------------
                    AO INTEGRAL TECHNOLOGY
                    ----------------------
     S,P,L SHELL ROTATED AXIS INTEGRALS, REPROGRAMMED BY
        KAZUYA ISHIMURA (IMS) AND JOSE SIERRA (SYNSTAR).
     S,P,D,L SHELL ROTATED AXIS INTEGRALS PROGRAMMED BY
        KAZUYA ISHIMURA (INSTITUTE FOR MOLECULAR SCIENCE).
     S,P,D,F,G SHELL TO TOTAL QUARTET ANGULAR MOMENTUM SUM 5,
        ERIC PROGRAM BY GRAHAM FLETCHER (ELORET AND NASA ADVANCED
        SUPERCOMPUTING DIVISION, AMES RESEARCH CENTER).
     S,P,D,F,G,L SHELL GENERAL RYS QUADRATURE PROGRAMMED BY
        MICHEL DUPUIS (PACIFIC NORTHWEST NATIONAL LABORATORY).

          --------------------
          2 ELECTRON INTEGRALS
          --------------------

 DIRECT SCF METHOD SKIPS INTEGRAL STORAGE ON DISK.
 DIRECT TRANSFORMATION SKIPS AO INTEGRAL STORAGE ON DISK.
  ...... END OF TWO-ELECTRON INTEGRALS .....
 STEP CPU TIME =     0.02 TOTAL CPU TIME =          0.1 (      0.0 MIN)
 TOTAL WALL CLOCK TIME=          0.1 SECONDS, CPU UTILIZATION IS    85.71%
 DDI: Creating Array [0] - 900 x 36 = 32400 words.
 DDI: Creating Array [1] - 21 x 288 = 6048 words.
 DDI: Creating Array [2] - 36 x 36 = 1296 words.
 DDI: Creating Array [3] - 465 x 36 = 16740 words.

          -----------------
          MCSCF CALCULATION
          -----------------

 ----- NUCLEAR ENERGY ----- =        11.0018789483

     -------------------------------------------------
     GMC-PT/GMC-QDPT or general MCSCF input parameters
     -------------------------------------------------
 # of frozen core orbs. =         0 ->         0
 # of doubly occ. orbs. =         1
 # of active      orbs. =         7
 # of virtual     orbs. =        21
 # of active electrons  =         7
 # of states in CI      =         3
 Highest state in CI    =         3
 kstate =  1 1 1
 avecoe =  0.333 0.333 0.333
 State symmetry           = A           
 Assigned symmetry number = 1

 <<<Act. MO sym.: 1111111

 <<<Division of 1-ext.:  0
 <<<Division of 2-ext.:  0

 *** Reference space

 Reference type: ORMAS (= Occupation restricted multiple active space)
 # of orbitals          =  7
 # of minimum electrons =  7
 # of maximum electrons =  7
 State symmetry    =    1 (input)
 2*Sz              =    1 (input)
 Spin multiplicity =    2 (input)
 Dimension of reference space =      1225  (from      3432 walks)

 Dimension of reference space =      1225  (from      1225 walks)

 <<<Ionized spaces for Ref-CI:
      0:         1225 /   -1-0:         1960 /  0-1-0:         2891

 EVALUATING EXCHANGE INTEGRALS FOR DIRECT INTEGRAL TRANSFORMATION
 SCHWARZ INEQUALITY OVERHEAD:       465 INTEGRALS, T=        0.00

     --------------------------------------------
     PARTIAL TWO ELECTRON INTEGRAL TRANSFORMATION
     --------------------------------------------

 NUMBER OF CORE MOLECULAR ORBITALS     =    1
 NUMBER OF OCCUPIED MOLECULAR ORBITALS =    8
 TOTAL NUMBER OF MOLECULAR ORBITALS    =   29
 TOTAL NUMBER OF ATOMIC ORBITALS       =   30
 THRESHOLD FOR KEEPING TRANSFORMED 2E- INTEGRALS = 1.000E-09

 -------------------------------     ------------------------------
 DISTRIBUTED DATA TRANSFORMATION     PROGRAM WRITTEN BY G. FLETCHER
 -------------------------------     ------------------------------

 THE DISTRIBUTED MEMORY REQUIRED FOR THIS STEP IS MEMDDI=         1 MWORDS
 CREATING DISTRIBUTED STORAGE FOR [VIR OCC|VIR OCC] INTEGRALS
 CREATING DISTRIBUTED STORAGE FOR [VIR OCC|OCC OCC] INTEGRALS
 CREATING DISTRIBUTED STORAGE FOR [OCC OCC|OCC OCC] INTEGRALS
 CREATING DISTRIBUTED STORAGE FOR [VIR VIR|OCC OCC] INTEGRALS
 FOR    1 PROCESSORS, THE REPLICATED MEMORY NEEDED IS       73700 WORDS.
 SCHWARZ INEQUALITY OVERHEAD:       465 INTEGRALS, T=        0.01

      DIRECT 4-INDEX TRANSFORMATION 
      SCHWARZ INEQUALITY TEST SKIPPED          0 INTEGRAL BLOCKS
 ----- FROZEN CORE ENERGY =       -47.5946261785
 ... END OF INTEGRAL TRANSFORMATION ...
 CPU     0: STEP CPU TIME=     0.22 TOTAL CPU TIME=          0.3 (      0.0 MIN)
 TOTAL WALL CLOCK TIME=          0.3 SECONDS, CPU UTILIZATION IS    96.55%

     --------------------------------     -----------------------------
     MCHF NEWTON-RAPHSON OPTIMIZATION     CODE WRITTEN BY MICHEL DUPUIS
     --------------------------------     -----------------------------
     PARALLEL VERSION WRITTEN BY G. FLETCHER (ELORET)
     NASA ADVANCED SUPERCOMPUTING DIVISION, AMES RESEARCH CENTER

 NUMBER OF INDEPENDENT ORBITAL ROTATION PARAMETERS =   175
 ..... DONE SOLVING NEWTON-RAPHSON EQUATIONS .....
 CPU     0: STEP CPU TIME=     0.79 TOTAL CPU TIME=          1.1 (      0.0 MIN)
 TOTAL WALL CLOCK TIME=          1.1 SECONDS, CPU UTILIZATION IS    99.07%
 ..... DONE WITH NTN-RPH ORBITAL ROTATIONS ..... 
 CPU     0: STEP CPU TIME=     0.00 TOTAL CPU TIME=          1.1 (      0.0 MIN)
 TOTAL WALL CLOCK TIME=          1.1 SECONDS, CPU UTILIZATION IS    99.07%
 MAXIMUM MEMORY USED BY NTN-RPH CODE WAS     57645 WORDS.

 ITER     TOTAL ENERGY      DEL(E)  LAGRANGIAN ASYMMETRY   SQCDF  MICIT   DAMP
   1      -55.600066481 -0.600066481  0.108103   12    5 1.014E-01  1   0.0000
   2      -55.659280534 -0.059214053  0.019678   12    5 4.616E-01  1   0.0000
   3      -55.695712943 -0.036432410  0.014081   11    6 2.245E-01  1   0.0185
   4      -55.712195568 -0.016482625  0.004889   11    6 4.236E-02  1   0.0058
   5      -55.714359443 -0.002163875  0.001041   14    5 1.061E-03  1   0.0000
   6      -55.714426764 -0.000067320  0.000445   23    5 8.500E-05  1   0.0000
   7      -55.714434302 -0.000007538  0.000199   23    5 1.770E-05  1   0.0000
   8      -55.714435874 -0.000001572  0.000096   23    5 4.444E-06  1   0.0000
   9      -55.714436253 -0.000000379  0.000048   23    5 1.215E-06  1   0.0000
  10      -55.714436353 -0.000000099  0.000025   23    5 3.511E-07  1   0.0000
  11      -55.714436380 -0.000000028  0.000013   23    5 1.053E-07  1   0.0000
  12      -55.714436388 -0.000000008  0.000007   23    5 3.252E-08  1   0.0000
  13      -55.714436391 -0.000000002  0.000004   23    5 1.032E-08  1   0.0000
  14      -55.714436391 -0.000000001  0.000002   23    5 3.326E-09  1   0.0000
  15      -55.714436392 -0.000000000  0.000001   23    5 1.088E-09  1   0.0000
  16      -55.714436392 -0.000000000  0.000001   23    5 3.565E-10  1   0.0000

          --------------------
          LAGRANGIAN CONVERGED
          --------------------

 FINAL MCSCF ENERGY IS      -55.7144363918 AFTER  16 ITERATIONS

 -MCCI- BASED ON OPTIMIZED ORBITALS
 ----------------------------------

 PLEASE NOTE: IF THE ACTIVE ORBITALS ARE CANONICALIZED BELOW,
 THE FOLLOWING CI EXPANSION COEFFICIENTS AND THE DENSITY DO NOT
 CORRESPOND TO THE PRINTED ORBITALS.  THE PRINTED EXPANSIONS MATCH
 THE ORBITALS USED DURING THE LAST ITERATION.  IF YOU WISH TO SEE
 CI EXPANSIONS BASED ON THE CANONICAL (OR NATURAL) ORBITALS, YOU
 MUST RUN A CI CALCULATION WITH THAT ORBITAL CHOICE READ IN $VEC.

 Averaged energy =     -55.714436392

 State #    1  Energy =     -55.853238102  S =  0.500

      Det      Coef    Occupancy (Ignoring core)
      ---      ----    --------- --------- -----
        1    0.879294  11110001110000
        2    0.056531  11101001110000
        5   -0.073099  01111001110000
        8   -0.128516  10110101110000
       17    0.144825  11010011110000
       36    0.297131  11110001101000
       71    0.152556  11110001011000
      211    0.052932  11110000110100
      386    0.100577  11110001010010
      393    0.052983  10110101010010
      701   -0.096120  11110001100001
      717    0.066123  11010011100001

 State #    2  Energy =     -55.716112782  S =  0.500

      Det      Coef    Occupancy (Ignoring core)
      ---      ----    --------- --------- -----
        1    0.317028  11110001110000
        8   -0.053389  10110101110000
       36   -0.677058  11110001101000
       38   -0.062911  11011001101000
       40    0.052895  01111001101000
       43    0.079044  10110101101000
       52   -0.081843  11010011101000
       71   -0.581528  11110001011000
       73   -0.050886  11011001011000
       78    0.060097  10110101011000
       87   -0.074283  11010011011000
      106    0.051777  11110000111000
      456   -0.062906  11110001001010
      701   -0.083361  11110001100001
      806   -0.058341  11110001001001

 State #    3  Energy =     -55.573958291  S =  0.500

      Det      Coef    Occupancy (Ignoring core)
      ---      ----    --------- --------- -----
        1   -0.072690  11110001110000
       36    0.595683  11110001101000
       43   -0.054880  10110101101000
       52    0.053539  11010011101000
       71   -0.741977  11110001011000
       87   -0.074014  11010011011000
      246   -0.057740  11110001001100
      316   -0.065506  11110000011100
      456    0.066240  11110001001010
      806   -0.106611  11110001001001
      822    0.057814  11010011001001

 DENSITY MATRIX OVER ACTIVE MO-S

             1           2           3           4           5

    1    1.9725928
    2   -0.0135898   1.6274233
    3    0.0286469   0.0090172   1.6213011
    4   -0.0034716  -0.0063337   0.0104560   1.6476874
    5    0.1125843   0.0355572  -0.0768802   0.0390515   0.0385141
    6   -0.0123072  -0.1495194   0.0080378  -0.0358479  -0.0091943
    7    0.0101115   0.0280868  -0.1772713   0.0848206   0.0159313

             6           7

    6    0.0388691
    7   -0.0108742   0.0536121

 FORMING THE "STANDARD FOCK OPERATOR" IN DIRECT AO INTEGRAL MODE...
 ONLY THE    1 CORE AND   21 VIRTUAL ORBITALS WILL BE CANONICALIZED

          ----------------------
          MCSCF NATURAL ORBITALS
          ----------------------

                      1          2          3          4          5
                  -15.9776     1.9811     1.6542     1.6467     1.6392
                     A          A          A          A          A   
    1  N  1  S    1.001061   0.009643  -0.008424  -0.002079   0.003711
    2  N  1  S   -0.002018   0.434394  -0.160250  -0.076620   0.086758
    3  N  1  S   -0.006380   0.329315  -0.258070  -0.105306   0.132618
    4  N  1  X   -0.000131  -0.025978  -0.009866   0.277497   0.415588
    5  N  1  Y    0.000051   0.052692  -0.145106   0.362920  -0.331036
    6  N  1  Z    0.001061   0.086314   0.580283   0.086691  -0.008032
    7  N  1  X   -0.000007   0.000235   0.017297   0.102956   0.225230
    8  N  1  Y   -0.000025   0.006287  -0.111243   0.147837  -0.189475
    9  N  1  Z   -0.000522   0.014173   0.388887   0.037800   0.032777
   10  N  1 XX    0.000069   0.000166  -0.010445  -0.006466   0.008030
   11  N  1 YY    0.000050   0.000024  -0.012262   0.002366  -0.007305
   12  N  1 ZZ   -0.000119  -0.000190   0.022707   0.004100  -0.000725
   13  N  1 XY    0.000227   0.003214   0.001756  -0.005642   0.015711
   14  N  1 XZ   -0.000089  -0.000203  -0.003580   0.009990   0.017674
   15  N  1 YZ    0.000152   0.003359   0.000543   0.016769  -0.015177
   16  H  2  S   -0.001813   0.218333   0.110866   0.184976  -0.324296
   17  H  2  S    0.000280   0.009478   0.027279   0.032991  -0.101068
   18  H  2  X   -0.000314   0.012241   0.008615   0.025392   0.002308
   19  H  2  Y    0.000801  -0.030700  -0.020180  -0.002394   0.021101
   20  H  2  Z    0.000564  -0.018828   0.018492  -0.008368   0.022322
   21  H  3  S   -0.001600   0.160615   0.145483  -0.337778  -0.010244
   22  H  3  S    0.000562  -0.000034   0.037513  -0.051090   0.017936
   23  H  3  X   -0.000665   0.022818   0.015051  -0.032062   0.007716
   24  H  3  Y   -0.000557   0.021858   0.008761  -0.020348  -0.020724
   25  H  3  Z    0.000281  -0.003127   0.019061   0.013084  -0.000578
   26  H  4  S   -0.001384   0.157945   0.057497   0.266881   0.235499
   27  H  4  S    0.000400  -0.001038   0.026395   0.038180   0.081235
   28  H  4  X    0.000647  -0.025966  -0.005983  -0.034325  -0.010907
   29  H  4  Y    0.000333  -0.012265  -0.005469  -0.005929  -0.026513
   30  H  4  Z    0.000312  -0.005127   0.022338  -0.005177  -0.007328

                      6          7          8
                    0.0350     0.0235     0.0203
                     A          A          A   
    1  N  1  S   -0.129308  -0.134233  -0.088175
    2  N  1  S   -0.436877  -0.485986  -0.278441
    3  N  1  S    0.012876  -0.206514  -0.027031
    4  N  1  X   -0.417500   0.027188   0.771022
    5  N  1  Y    0.442834  -0.549119   0.424357
    6  N  1  Z   -0.179048  -0.597843  -0.199085
    7  N  1  X    0.044509  -0.005994   0.065651
    8  N  1  Y   -0.048578  -0.098328   0.027329
    9  N  1  Z    0.068103   0.052846   0.057397
   10  N  1 XX    0.029193  -0.017264   0.044327
   11  N  1 YY   -0.023784   0.016708  -0.037269
   12  N  1 ZZ   -0.005409   0.000556  -0.007057
   13  N  1 XY    0.073178   0.018274  -0.012646
   14  N  1 XZ    0.005825  -0.004605  -0.051015
   15  N  1 YZ    0.007314   0.053563  -0.010286
   16  H  2  S   -0.381026   0.733838   0.134514
   17  H  2  S   -0.156009   0.147341   0.038532
   18  H  2  X    0.008740   0.047181  -0.033545
   19  H  2  Y    0.008775  -0.043038  -0.037189
   20  H  2  Z    0.024078  -0.000840  -0.001490
   21  H  3  S    0.422577   0.087006   0.696137
   22  H  3  S    0.086956  -0.016727   0.149789
   23  H  3  X    0.043046   0.012340   0.051634
   24  H  3  Y    0.011164   0.016082   0.052147
   25  H  3  Z   -0.001869   0.009881   0.028834
   26  H  4  S    0.597193   0.317976  -0.386668
   27  H  4  S    0.163012   0.034970  -0.120375
   28  H  4  X   -0.042168  -0.045688   0.034600
   29  H  4  Y   -0.046709   0.002422   0.006257
   30  H  4  Z    0.001561   0.030665  -0.011033

          ------------------------
          MCSCF OPTIMIZED ORBITALS
          ------------------------

                      1          2          3          4          5
                  -15.9776     0.0000     0.0000     0.0000     0.0000
                     A          A          A          A          A   
    1  N  1  S    1.001061  -0.002091  -0.002278   0.013004  -0.015895
    2  N  1  S   -0.002018   0.397851   0.000942  -0.012762  -0.196775
    3  N  1  S   -0.006380   0.329017   0.045357  -0.112102  -0.272456
    4  N  1  X   -0.000131  -0.012797   0.411786  -0.063000   0.005012
    5  N  1  Y    0.000051   0.018712  -0.000141   0.421417  -0.037578
    6  N  1  Z    0.001061   0.050831  -0.007641   0.012634   0.579397
    7  N  1  X   -0.000007   0.013739   0.232409  -0.081240   0.030761
    8  N  1  Y   -0.000025  -0.016434  -0.041403   0.248289  -0.081659
    9  N  1  Z   -0.000522   0.022985   0.015061  -0.053289   0.392042
   10  N  1 XX    0.000069   0.001743   0.001717  -0.014489  -0.009198
   11  N  1 YY    0.000050  -0.001245  -0.001901   0.013067  -0.013442
   12  N  1 ZZ   -0.000119  -0.000498   0.000184   0.001422   0.022640
   13  N  1 XY    0.000227   0.007797   0.013962  -0.020994   0.004485
   14  N  1 XZ   -0.000089  -0.000048   0.023820  -0.001637  -0.002452
   15  N  1 YZ    0.000152   0.004376   0.000993   0.023446   0.003447
   16  H  2  S   -0.001813   0.211320  -0.169318   0.397795   0.118109
   17  H  2  S    0.000280   0.003213  -0.069396   0.104995   0.024315
   18  H  2  X   -0.000314   0.013587   0.020289   0.018908   0.012239
   19  H  2  Y    0.000801  -0.031314   0.019738  -0.014821  -0.020139
   20  H  2  Z    0.000564  -0.016126   0.011919  -0.026872   0.017684
   21  H  3  S   -0.001600   0.199136  -0.261264  -0.330719   0.119248
   22  H  3  S    0.000562   0.007370  -0.027178  -0.071962   0.034907
   23  H  3  X   -0.000665   0.027098  -0.017445  -0.036120   0.012289
   24  H  3  Y   -0.000557   0.022922  -0.032737  -0.004815   0.006841
   25  H  3  Z    0.000281  -0.002692   0.004471   0.006136   0.020948
   26  H  4  S   -0.001384   0.196208   0.410049   0.011813   0.122422
   27  H  4  S    0.000400   0.009294   0.103008  -0.038155   0.038315
   28  H  4  X    0.000647  -0.028716  -0.034789  -0.017646  -0.012879
   29  H  4  Y    0.000333  -0.015338  -0.026521   0.017432  -0.008389
   30  H  4  Z    0.000312  -0.004032  -0.009649  -0.001180   0.021011

                      6          7          8          9         10
                    0.0000     0.0000     0.0000     0.1526     0.2080
                     A          A          A          A          A   
    1  N  1  S    0.199440  -0.014625  -0.047688  -0.130311   0.014208
    2  N  1  S    0.718105  -0.032088  -0.135929  -0.198685   0.011953
    3  N  1  S    0.188220  -0.031822   0.117136   1.288824  -0.205672
    4  N  1  X   -0.009937   0.919847  -0.008284   0.016206  -0.152268
    5  N  1  Y    0.078818   0.136448   0.859451  -0.050087  -0.089572
    6  N  1  Z    0.651208  -0.079561   0.109379  -0.201224   0.023035
    7  N  1  X   -0.025409   0.057844   0.047060  -0.043711   0.663942
    8  N  1  Y    0.081140   0.039298   0.067218   0.221026   0.528324
    9  N  1  Z   -0.080136   0.027454   0.013977   0.437268  -0.012869
   10  N  1 XX   -0.012776   0.023786   0.047969   0.022021  -0.027853
   11  N  1 YY    0.007997  -0.020877  -0.039834   0.018491   0.009199
   12  N  1 ZZ    0.004779  -0.002909  -0.008135  -0.040512   0.018654
   13  N  1 XY   -0.047181  -0.045802   0.033174   0.061705  -0.037035
   14  N  1 XZ    0.015573  -0.045226  -0.014790  -0.018774   0.068543
   15  N  1 YZ   -0.045297  -0.011794  -0.027906   0.070784   0.062302
   16  H  2  S   -0.446524   0.304396  -0.602977   0.257738   0.157621
   17  H  2  S   -0.056193   0.107232  -0.169034  -0.816209  -0.503278
   18  H  2  X   -0.032902  -0.030755  -0.034204   0.018684   0.004033
   19  H  2  Y    0.039749  -0.036143   0.015209   0.098010   0.013929
   20  H  2  Z   -0.010225  -0.011798   0.012913   0.073509   0.025177
   21  H  3  S   -0.458526   0.377611   0.497559   0.316390  -0.531630
   22  H  3  S   -0.068901   0.085404   0.124039  -0.686093   1.850743
   23  H  3  X   -0.043410   0.022654   0.040177  -0.051643   0.093699
   24  H  3  Y   -0.032434   0.037339   0.019679  -0.061173   0.056155
   25  H  3  Z   -0.014976   0.027023   0.004349  -0.007704  -0.068841
   26  H  4  S   -0.435507  -0.588749   0.064356   0.410026   0.288922
   27  H  4  S   -0.073182  -0.175148   0.037244  -0.918148  -0.990818
   28  H  4  X    0.047345   0.046948   0.010586   0.036422   0.040425
   29  H  4  Y    0.017800   0.025985  -0.028988   0.059634   0.040523
   30  H  4  Z   -0.022562  -0.010395  -0.022382   0.035559   0.065827

                     11         12         13         14         15
                    0.2391     0.5332     0.6130     0.7077     0.7883
                     A          A          A          A          A   
    1  N  1  S    0.029332   0.088093   0.033496  -0.072421  -0.252728
    2  N  1  S    0.066062   0.136200   0.201797  -0.176884  -0.594044
    3  N  1  S   -0.158418  -0.424291   0.396807   0.181189   0.869729
    4  N  1  X   -0.041622   0.341685   0.119700  -0.438831   0.091162
    5  N  1  Y   -0.026690  -0.546086  -0.230837  -0.197080   0.035508
    6  N  1  Z    0.038917   0.437876  -0.543643   0.065794   0.234546
    7  N  1  X    0.412553  -0.515976  -0.324811   1.629604  -0.273860
    8  N  1  Y   -0.173119   0.994326   0.965026   0.911337  -0.283654
    9  N  1  Z   -0.163626  -0.467573   1.072445  -0.019993  -0.292301
   10  N  1 XX    0.055053  -0.003755   0.018834  -0.008944   0.158819
   11  N  1 YY   -0.039767   0.023360  -0.051606   0.033739  -0.145133
   12  N  1 ZZ   -0.015286  -0.019605   0.032772  -0.024795  -0.013687
   13  N  1 XY    0.068286  -0.002498  -0.053052  -0.000863  -0.076046
   14  N  1 XZ    0.052189  -0.008339   0.000158  -0.109662  -0.034227
   15  N  1 YZ   -0.053256   0.015265  -0.030832  -0.046076   0.039985
   16  H  2  S   -0.627350  -0.111635  -0.751295   0.053157   0.197621
   17  H  2  S    2.149661  -0.635096  -0.622886   0.017183  -0.073678
   18  H  2  X    0.043061   0.007745  -0.172123  -0.189485  -0.385151
   19  H  2  Y   -0.074220   0.092270   0.026494   0.020865  -0.168586
   20  H  2  Z   -0.057326   0.032037   0.084847  -0.035351   0.086459
   21  H  3  S    0.194130   0.334773  -0.297216   0.672096  -0.219620
   22  H  3  S   -0.495678   0.360703   0.409554   0.468277  -0.356833
   23  H  3  X   -0.000766   0.022191  -0.018593   0.178028  -0.204736
   24  H  3  Y    0.024261   0.019545   0.114008   0.100804   0.238978
   25  H  3  Z   -0.006401  -0.050032   0.087468   0.174857   0.074053
   26  H  4  S    0.508093   0.245788  -0.269759  -0.585241   0.324429
   27  H  4  S   -1.657931   0.406585   0.308294  -0.626317  -0.165494
   28  H  4  X    0.051206  -0.038363   0.133719   0.219719   0.265669
   29  H  4  Y    0.004653   0.034994  -0.079666   0.120884  -0.290471
   30  H  4  Z    0.001917  -0.069616  -0.003771  -0.195058  -0.049103

                     16         17         18         19         20
                    1.0087     1.0457     1.1630     1.3424     1.3826
                     A          A          A          A          A   
    1  N  1  S   -0.540836  -0.333798  -0.042522  -0.220618  -0.317772
    2  N  1  S   -1.145786  -0.704667  -0.091870  -0.475521  -0.674025
    3  N  1  S    2.215191   1.500729   0.197684   0.730572   1.195408
    4  N  1  X   -0.006720   0.114334  -0.270498  -0.002650  -0.020555
    5  N  1  Y   -0.102584   0.031814  -0.146119  -0.049779   0.056138
    6  N  1  Z    0.132907   0.050980   0.026112  -0.045703  -0.041845
    7  N  1  X   -0.109570  -0.589592   0.864688   0.097689  -0.231552
    8  N  1  Y    0.543925  -0.006847   0.722882  -0.428036   0.278724
    9  N  1  Z    0.052143   0.489173   0.157422   0.300073   0.643350
   10  N  1 XX   -0.146445  -0.039090   0.100872   0.121469   0.006624
   11  N  1 YY   -0.072540   0.193506  -0.054524   0.052347   0.014983
   12  N  1 ZZ    0.218984  -0.154416  -0.046348  -0.173816  -0.021607
   13  N  1 XY    0.039966  -0.083958  -0.086214  -0.089026   0.100241
   14  N  1 XZ    0.038060   0.119384   0.158258  -0.031562   0.062478
   15  N  1 YZ   -0.070148  -0.145806  -0.000345   0.034153  -0.051337
   16  H  2  S   -0.519898  -0.314902  -0.105136  -0.160030  -0.373935
   17  H  2  S   -0.349649  -0.248331  -0.070782   0.025520  -0.320480
   18  H  2  X    0.208546  -0.178584   0.086928   0.141980   0.006712
   19  H  2  Y   -0.040358   0.427572   0.242962   0.127860   0.053419
   20  H  2  Z    0.312373  -0.448205  -0.055770  -0.386066   0.395207
   21  H  3  S   -0.196974  -0.422905   0.498217  -0.226755  -0.363111
   22  H  3  S   -0.253115  -0.323200   0.224044  -0.145694  -0.024558
   23  H  3  X    0.003569   0.134194  -0.260441  -0.473782   0.081151
   24  H  3  Y   -0.078108  -0.384408   0.034016   0.574565  -0.065747
   25  H  3  Z    0.270856   0.030495  -0.449341  -0.004711  -0.608821
   26  H  4  S   -0.392746   0.045146  -0.597714  -0.120020  -0.343309
   27  H  4  S   -0.222139  -0.049479  -0.179329  -0.068170   0.102159
   28  H  4  X   -0.063735   0.168407  -0.007987  -0.249179  -0.089620
   29  H  4  Y    0.108370  -0.018100  -0.476988   0.474414   0.047140
   30  H  4  Z    0.350229  -0.036014   0.374577  -0.102056  -0.651168

                     21         22         23         24         25
                    1.6355     1.7541     1.8478     1.9694     2.0992
                     A          A          A          A          A   
    1  N  1  S   -0.055842  -0.136884   0.113040  -0.148758  -0.022441
    2  N  1  S   -0.053221  -0.377179   0.271713  -0.324850  -0.036204
    3  N  1  S    0.706459  -0.526806  -0.023891   0.128726   0.147571
    4  N  1  X    0.054543   0.172242   0.243043   0.343453  -0.007363
    5  N  1  Y   -0.046734  -0.087735   0.487341  -0.017137  -0.029518
    6  N  1  Z    0.030284  -0.171243   0.175802  -0.125695  -0.000306
    7  N  1  X    0.664262   0.394262   0.312174  -0.064516   0.126547
    8  N  1  Y    0.410655   0.374298   0.057690   0.153593  -0.126483
    9  N  1  Z    0.297187  -0.146759  -0.036774   0.106899   0.305835
   10  N  1 XX   -0.077110   0.063727  -0.008867  -0.199212  -0.543463
   11  N  1 YY    0.087142   0.084939  -0.050474   0.218577  -0.273558
   12  N  1 ZZ   -0.010031  -0.148666   0.059341  -0.019365   0.817021
   13  N  1 XY   -0.080424   0.110763   0.058376   0.036524   0.554013
   14  N  1 XZ   -0.061411  -0.188357  -0.081105  -0.176029  -0.038458
   15  N  1 YZ   -0.029755   0.104939  -0.243587   0.084317   0.222131
   16  H  2  S   -0.281162  -0.045691   0.120684  -0.035090  -0.039512
   17  H  2  S    0.223809  -0.025676  -0.357167   0.323344   0.031891
   18  H  2  X   -0.308621  -0.378305  -0.162510   0.788032  -0.349866
   19  H  2  Y   -0.415472  -0.432161   0.633817  -0.264360   0.241980
   20  H  2  Z    0.007356  -0.293109   0.348003  -0.255060  -0.543812
   21  H  3  S    0.227760   0.207048   0.080875  -0.000177  -0.063126
   22  H  3  S   -0.102287   0.412968   0.414887   0.085435  -0.058976
   23  H  3  X   -0.329653   0.678072   0.339033   0.244778  -0.239869
   24  H  3  Y   -0.348580   0.268138   0.523158   0.309872   0.080787
   25  H  3  Z   -0.522023  -0.279385  -0.282535  -0.225569  -0.174535
   26  H  4  S   -0.260562  -0.120563  -0.018914  -0.137522  -0.076776
   27  H  4  S   -0.542502   0.135672  -0.190596  -0.351219  -0.008807
   28  H  4  X    0.403046  -0.501521   0.300677   0.817063   0.045726
   29  H  4  Y    0.603748  -0.121645   0.338571  -0.282043  -0.035758
   30  H  4  Z    0.335051   0.390584   0.433499  -0.054689  -0.125296

                     26         27         28         29
                    2.2390     2.5102     2.6228     3.0986
                     A          A          A          A   
    1  N  1  S    0.082603   0.021985  -0.189948  -0.105700
    2  N  1  S    0.159853   0.003033  -0.216983  -0.118305
    3  N  1  S   -0.309524  -0.667682   2.326077   1.023004
    4  N  1  X   -0.077272   0.325403  -0.081997   0.037447
    5  N  1  Y    0.002189   0.128341   0.303838  -0.318138
    6  N  1  Z    0.026242  -0.086414   0.306645   0.009182
    7  N  1  X    0.113181   1.177948  -0.087693   0.011464
    8  N  1  Y   -0.113783   0.482314   0.955800  -0.462192
    9  N  1  Z   -0.260107  -0.216560   0.744725   0.025189
   10  N  1 XX   -0.673594   0.065472   0.078322   0.881679
   11  N  1 YY    0.967099  -0.158286   0.346997  -0.295880
   12  N  1 ZZ   -0.293505   0.092814  -0.425318  -0.585799
   13  N  1 XY    0.299207  -0.074473   0.222774   1.277322
   14  N  1 XZ    0.254673   1.127892  -0.174253   0.176229
   15  N  1 YZ   -0.222136   0.339422   1.117210  -0.422354
   16  H  2  S    0.123353   0.318813  -1.396014   0.708253
   17  H  2  S    0.000854   0.171763  -0.556303   0.182579
   18  H  2  X   -0.346750  -0.140053  -0.317957   0.255781
   19  H  2  Y   -0.234372  -0.346448   0.807885  -0.534241
   20  H  2  Z    0.305271  -0.134239   0.611748  -0.419815
   21  H  3  S    0.062193   0.963613  -0.361153  -0.989662
   22  H  3  S   -0.022227   0.413512  -0.002286  -0.288276
   23  H  3  X   -0.384946   0.638322  -0.087308  -0.676089
   24  H  3  Y    0.367530   0.500045  -0.244353  -0.521280
   25  H  3  Z    0.171494   0.062676   0.187759   0.387725
   26  H  4  S    0.120456  -0.594895  -0.715551  -0.719275
   27  H  4  S    0.098322  -0.357994  -0.128916  -0.201967
   28  H  4  X   -0.105229   0.444791   0.417756   0.676380
   29  H  4  Y   -0.264590   0.422747   0.164091   0.347108
   30  H  4  Z    0.049369   0.007395   0.205544   0.364704
 .....DONE WITH MCSCF ITERATIONS.....
 CPU     0: STEP CPU TIME=    11.66 TOTAL CPU TIME=         12.7 (      0.2 MIN)
 TOTAL WALL CLOCK TIME=         12.7 SECONDS, CPU UTILIZATION IS    99.92%

     ----------------------------------------------------------------
     PROPERTY VALUES FOR THE MCSCF SELF-CONSISTENT FIELD WAVEFUNCTION
     ----------------------------------------------------------------

          -----------------
          ENERGY COMPONENTS
          -----------------

         WAVEFUNCTION NORMALIZATION =       1.0000000000

                ONE ELECTRON ENERGY =     -93.6234666942
                TWO ELECTRON ENERGY =      26.9071513541
           NUCLEAR REPULSION ENERGY =      11.0018789483
                                      ------------------
                       TOTAL ENERGY =     -55.7144363918

 ELECTRON-ELECTRON POTENTIAL ENERGY =      26.9071513541
  NUCLEUS-ELECTRON POTENTIAL ENERGY =    -149.2796413134
   NUCLEUS-NUCLEUS POTENTIAL ENERGY =      11.0018789483
                                      ------------------
             TOTAL POTENTIAL ENERGY =    -111.3706110110
               TOTAL KINETIC ENERGY =      55.6561746193
                 VIRIAL RATIO (V/T) =       2.0010468160

          ---------------------------------------
          MULLIKEN AND LOWDIN POPULATION ANALYSES
          ---------------------------------------

     ATOMIC MULLIKEN POPULATION IN EACH MOLECULAR ORBITAL

                      1          2          3          4          5

                  2.000000   1.981134   1.654200   1.646659   1.639188

    1             2.000596   1.364030   1.529694   0.900332   1.152231
    2            -0.000288   0.294102   0.046405   0.111936   0.290133
    3            -0.000183   0.162928   0.063721   0.390209   0.008686
    4            -0.000125   0.160074   0.014380   0.244182   0.188138

                      6          7          8

                  0.034994   0.023515   0.020310

    1             0.014531   0.012677   0.011151
    2             0.003453   0.008766   0.000319
    3             0.005582   0.000059   0.006827
    4             0.011428   0.002014   0.002012
 WARNING! MCSCF POPULATIONS SHOWN ABOVE ARE FOR THE NATURAL ORBITALS.
 IGNORE THE ABOVE DATA FOR MCSCF FUNCTIONS WHICH ARE NOT OF -FORS- TYPE.
 THE FOLLOWING POPULATIONS ARE CORRECT FOR ANY MCSCF WAVEFUNCTION.

               ----- POPULATIONS IN EACH AO -----
                             MULLIKEN      LOWDIN
              1  N  1  S      2.00223     1.90465
              2  N  1  S      0.81928     0.57897
              3  N  1  S      0.71005     0.41944
              4  N  1  X      0.67135     0.60007
              5  N  1  Y      0.69741     0.63236
              6  N  1  Z      0.85994     0.80961
              7  N  1  X      0.33736     0.43172
              8  N  1  Y      0.34173     0.43442
              9  N  1  Z      0.52868     0.56859
             10  N  1 XX      0.00068     0.17605
             11  N  1 YY      0.00173     0.16313
             12  N  1 ZZ      0.00463     0.14511
             13  N  1 XY      0.00421     0.01068
             14  N  1 XZ      0.00595     0.00715
             15  N  1 YZ      0.00000     0.01254
             16  H  2  S      0.63586     0.49151
             17  H  2  S      0.05803     0.15028
             18  H  2  X      0.01510     0.03362
             19  H  2  Y      0.02537     0.04476
             20  H  2  Z      0.02047     0.04406
             21  H  3  S      0.54435     0.42691
             22  H  3  S      0.03907     0.15137
             23  H  3  X      0.02477     0.04447
             24  H  3  Y      0.01920     0.03357
             25  H  3  Z      0.01044     0.02689
             26  H  4  S      0.51831     0.40388
             27  H  4  S      0.05222     0.15359
             28  H  4  X      0.02684     0.04635
             29  H  4  Y      0.01394     0.02859
             30  H  4  Z      0.01079     0.02565

          ----- MULLIKEN ATOMIC OVERLAP POPULATIONS -----
          (OFF-DIAGONAL ELEMENTS NEED TO BE MULTIPLIED BY 2)

             1           2           3           4

    1    6.1642968
    2    0.2736425   0.4964003
    3    0.2883398  -0.0056193   0.3605613
    4    0.2589630  -0.0095986  -0.0054519   0.3781904

          TOTAL MULLIKEN AND LOWDIN ATOMIC POPULATIONS
       ATOM         MULL.POP.    CHARGE          LOW.POP.     CHARGE
    1 N             6.985242    0.014758         6.894497    0.105503
    2 H             0.754825    0.245175         0.764227    0.235773
    3 H             0.637830    0.362170         0.683211    0.316789
    4 H             0.622103    0.377897         0.658065    0.341935

          MULLIKEN SPHERICAL HARMONIC POPULATIONS
       ATOM           S       P       D      F      G      H      I    TOTAL
    1 N             3.53    3.44    0.02   0.00   0.00   0.00   0.00    6.99
    2 H             0.69    0.06    0.00   0.00   0.00   0.00   0.00    0.75
    3 H             0.58    0.05    0.00   0.00   0.00   0.00   0.00    0.64
    4 H             0.57    0.05    0.00   0.00   0.00   0.00   0.00    0.62

          ---------------------
          ELECTROSTATIC MOMENTS
          ---------------------

 POINT   1           X           Y           Z (BOHR)    CHARGE
                -0.000001    0.000005   -0.177185        1.00 (A.U.)
         DX          DY          DZ         /D/  (DEBYE)
    -0.237974    0.872586    2.121681    2.306419
 ...... END OF PROPERTY EVALUATION ......
 CPU     0: STEP CPU TIME=     0.01 TOTAL CPU TIME=         12.7 (      0.2 MIN)
 TOTAL WALL CLOCK TIME=         12.8 SECONDS, CPU UTILIZATION IS    99.92%

     -------------------------------------------------
     GMC-PT/GMC-QDPT or general MCSCF input parameters
     -------------------------------------------------
 # of frozen core orbs. =         0 ->         0
 # of doubly occ. orbs. =         1
 # of active      orbs. =         7
 # of virtual     orbs. =        21
 # of active electrons  =         7
 # of states in CI      =         3
 Highest state in CI    =         3
 kstate =  1 1 1
 avecoe =  0.333 0.333 0.333
 State symmetry           = A           
 Assigned symmetry number = 1

 <<<Act. MO sym.: 1111111

 <<<Division of 1-ext.:  0
 <<<Division of 2-ext.:  0

     ------------------------
     Orbital canonicalization
     ------------------------

 MOs are canonicalized for core, virtual, and invariant-active orbital spaces.
 This is a part of the GMC-QDPT calculation.
 SCHWARZ INEQUALITY OVERHEAD:       465 INTEGRALS, T=        0.00
 DIRECT TRANSFORMATION SKIPS AO INTEGRAL STORAGE ON DISK.

 Averaged energy =     -55.714436392

 State #    1  Energy =     -55.853238102  S =  0.500
 State #    2  Energy =     -55.716112782  S =  0.500
 State #    3  Energy =     -55.573958291  S =  0.500

 Orbital energies for filled orbital space
  -15.977643
 Orbital energies for active orbital space
   -1.490335  -0.960290  -0.823598  -0.717410   0.314304
    0.373781   0.122326
 Orbital energies for external orbital space
    0.152621   0.207953   0.239135   0.533246   0.613050
    0.707715   0.788324   1.008716   1.045678   1.163037
    1.342366   1.382561   1.635467   1.754135   1.847827
    1.969352   2.099155   2.238970   2.510192   2.622764
    3.098637

 Zero values mean non-canonical orbitals.
 ... done with orbital canonicalization ...
 CPU     0: STEP CPU TIME=     0.70 TOTAL CPU TIME=         13.4 (      0.2 MIN)
 TOTAL WALL CLOCK TIME=         13.5 SECONDS, CPU UTILIZATION IS    99.93%

     --------------------------------------------
     PARTIAL TWO ELECTRON INTEGRAL TRANSFORMATION
     --------------------------------------------

 NUMBER OF CORE MOLECULAR ORBITALS     =    0
 NUMBER OF OCCUPIED MOLECULAR ORBITALS =    8
 TOTAL NUMBER OF MOLECULAR ORBITALS    =   29
 TOTAL NUMBER OF ATOMIC ORBITALS       =   30
 THRESHOLD FOR KEEPING TRANSFORMED 2E- INTEGRALS = 1.000E-09
 AO INTEGRALS WILL BE CALCULATED IN DIRECT MODE...
 DIRECT TRANSFORMATION SKIPS AO INTEGRAL STORAGE ON DISK.
 SCHWARZ INEQUALITY OVERHEAD:       465 INTEGRALS, T=        0.00

 PLAN A: REQUIREMENTS FOR FULLY IN-MEMORY TRANSFORMATION:
 # OF WORDS AVAILABLE =            100000000
 # OF WORDS NEEDED    =               221798

 PARALLEL ONLY WORKS WITH THE SEGMENTED ALGORITHM.
 ADJUSTING MEMORY TO USE SEGMENTED ALGORITHM.


 PLAN B: REQUIREMENTS FOR THE SEGMENTED TRANSFORMATION:
       MINIMUM=         124148 WORDS FOR 1 MOLECULAR ORBITAL PER PASS
       MAXIMUM=         221798 WORDS FOR ALL MOLECULAR ORBITALS IN 1 PASS
              (          13950 EXTRA WORDS INCLUDES 1 EXTRA ORBITAL/PASS)
 THIS RUN USES=         221798 WORDS,
 DISTRIBUTING   1 PASSES EACH CONTAINING     8 ORBITALS OVER   1 PROCESSORS.

 CHOOSING SEGMENTED PARTIAL TRANSFORMATION...
 DIRECT TRANSFORMATION SKIPS AO INTEGRAL STORAGE ON DISK.
 PASS #   1 TOOK        0.04 SECONDS.
 TOTAL NUMBER OF TRANSFORMED 2E- INTEGRALS KEPT =        29226
 ... END OF INTEGRAL TRANSFORMATION ...
 CPU     0: STEP CPU TIME=     0.04 TOTAL CPU TIME=         13.5 (      0.2 MIN)
 TOTAL WALL CLOCK TIME=         13.5 SECONDS, CPU UTILIZATION IS    99.93%

     --------     ------------------------------------------
     GMC-QDPT     Program written by H.Nakano (Kyushu Univ.)
     --------     ------------------------------------------

 *** Reference space

 Reference type: ORMAS (= Occupation restricted multiple active space)
 # of orbitals          =  7
 # of minimum electrons =  7
 # of maximum electrons =  7
 State symmetry    =    1 (input)
 2*Sz              =    1 (input)
 Spin multiplicity =    2 (input)
 Dimension of reference space =      1225  (from      3432 walks)

 Dimension of reference space =      1225  (from      1225 walks)

 <<<Ionized spaces for Ref-CI:
      0:         1225 /   -1-0:         1960 /  0-1-0:         2891

 ***                    ***
 *** Reference space CI ***
 ***                    ***

 Converged after   36 iterations

 Reference wavefunctions:

 State #    1  Energy =     -55.853238102  S =  0.500

      Det      Coef    Occupancy (Ignoring core)
      ---      ----    --------- --------- -----
        1    0.971706  11110001110000
       36   -0.087048  11110001101000
      143    0.052494  11011001100100
      393    0.051995  10110101010010
      717    0.054413  11010011100001

 State #    2  Energy =     -55.716112782  S =  0.500

      Det      Coef    Occupancy (Ignoring core)
      ---      ----    --------- --------- -----
        1   -0.091603  11110001110000
       36   -0.974959  11110001101000
      463   -0.053699  10110101001010
      823   -0.050724  10110011001001

 State #    3  Energy =     -55.573958291  S =  0.500

      Det      Coef    Occupancy (Ignoring core)
      ---      ----    --------- --------- -----
       71    0.975546  11110001011000
      248   -0.054201  11011001001100
      822   -0.055884  11010011001001

 Davidson method: CPU/Wall time =           0.47 /           0.47 sec.

 Oscillator strength (invalid if E(1)/=E(GS)):
 -----------------------------------------
   State                        f
 -----------------------------------------
     2     F(REF-CI)=        0.0030368420
     3     F(REF-CI)=        0.0041924453
 -----------------------------------------

 Dipole moment matrix elements, x, y, z, in A.U.

 Dimension of ionized spaces for PT:
 (N-2) space:         1715 /  (N-1) space:         2842 /  N space:         2891
 (N+1) space:         2842 /  (N+2) space:         1715

 <<<Ionized spaces for internal:
         0:         1225 /      -1-0:         1960 /     0-1-0:         2891
  -1-0-1-0:         2842 / 0-1-0-1-0:         3381

 Diagonal elements of averaged one-particle density matrix:
       2       3       4       5       6       7       8
  0.9930  0.9860  0.9845  0.9906  0.0134  0.0120  0.0205
  0.9880  0.6604  0.6570  0.6613  0.0104  0.0086  0.0143

 Orbital energies:
 -------- Doubly-occupied orbitals (highest several orbs.) -------
             1
 -1.597764D+01
 -------- Active orbitals ----------------------------------------
             2            3            4            5            6
 -1.490335D+00-9.602899D-01-8.235976D-01-7.174097D-01 3.143038D-01
             7            8
  3.737813D-01 1.223258D-01
 -------- External orbitals (lowest several orbs.) ---------------
             9           10           11           12           13
  1.526214D-01 2.079528D-01 2.391351D-01 5.332459D-01 6.130496D-01
            14           15           16           17           18
  7.077148D-01 7.883242D-01 1.008716D+00 1.045678D+00 1.163037D+00

 *** Quasi-degeneracy checking

 === Det (|Ci| > 1.0D-01 and dE < 5.0D-03)

 # of small denominators (single excitations)
 State       dEmin  dE < 5.0D-03  dE < 5.0D-04  dE < 5.0D-05  dE < 5.0D-06
 ----- ----------- ------------- ------------- ------------- -------------
     1    5.00D-03             0             0             0             0
     2    5.00D-03             0             0             0             0
     3    5.00D-03             0             0             0             0

 # of small denominators (double excitations)
 State       dEmin  dE < 5.0D-03  dE < 5.0D-04  dE < 5.0D-05  dE < 5.0D-06
 ----- ----------- ------------- ------------- ------------- -------------
     1    5.00D-03             0             0             0             0
     2    5.00D-03             0             0             0             0
     3    5.00D-03             0             0             0             0

 *** Zeroth-Order Setup (Granovsky's zeroth-order vectors)
 Zeroth-order effective Hamiltonian
  (= Sum_i e(i)*<I|a+(i)a(i)|J> ):
                   1            2            3
     1 -7.157123D+00
     2  1.687288D-02-7.069461D+00
     3  8.508977D-04 5.502378D-03-6.926142D+00

 Zeroth-order vectors:
 State #    1
       MC st            1           2           3
       Coeff    9.832D-01  -1.827D-01   7.217D-04
 State #    2
       MC st            2           1           3
       Coeff   -9.824D-01  -1.826D-01   3.961D-02
 State #    3
       MC st            3           2           1
       Coeff    9.992D-01   3.907D-02   6.529D-03

 *** GMC-QDPT computation

 (Integral reading:  CPU/Wall time =           0.00 /           0.00 sec.)

 One-external:
   0 -ionized terms: CPU/Wall time =           0.03 /           0.03 sec.
 (-1)-ionized terms: CPU/Wall time =           0.09 /           0.09 sec.
 (+1)-ionized terms: CPU/Wall time =           0.02 /           0.03 sec.
 (+1)-ionized terms: CPU/Wall time =           0.01 /           0.00 sec.
 (+2)-ionized terms: CPU/Wall time =           0.00 /           0.00 sec.

 Internal:
 # of macro loops for internal contribution =         1 (input)
 Loop:    1
 Dimension of internal CISD space     =         0  (after screening)
 Space construction: CPU/Wall time =           0.02 /           0.02 sec.
 Internal terms:     CPU/Wall time =           0.00 /           0.00 sec.

 Two-external:
   0 -ionized terms: CPU/Wall time =           0.06 /           0.06 sec.
 (-1)-ionized terms: CPU/Wall time =           1.00 /           1.00 sec.
 (-2)-ionized terms: CPU/Wall time =           0.17 /           0.17 sec.

 Total time:         CPU/Wall time =           1.40 /           1.40 sec.

 ***                  ***
 *** GMC-QDPT Results ***
 ***                  ***

 Diagonal elements of effective Hamiltonian:
 Heff(  1) =   -55.94809026
 Heff(  2) =   -55.82770151
 Heff(  3) =   -55.68508078

 Off-diagonal elements of effective Hamiltonian:
                   1            2
     2  2.188711D-02
     3 -2.973114D-04 5.475701D-03

 ******** GMC-QDPT energies ********
 ----------------------------------------------------------------------------
   State                        1st order                           2nd order
 ----------------------------------------------------------------------------
     1     E(REF-CI)=      -55.8532381017   E(GMC-QDPT2)=      -55.9519517217
     2     E(REF-CI)=      -55.7161127824   E(GMC-QDPT2)=      -55.8240510985
     3     E(REF-CI)=      -55.5739582911   E(GMC-QDPT2)=      -55.6848697311
 ----------------------------------------------------------------------------

 Excitation energies (invalid if E(1)/=E(GS)):
 ----------------------------------------------------------------------------
   State                        1st order                           2nd order
 ----------------------------------------------------------------------------

     TZ Sorted GMC-PT ENERGIES:
         1      -55.9519517217
         2      -55.8240510985
         3      -55.6848697311
     2     E(REF-CI)=        3.7313719 eV   E(GMC-QDPT2)=        3.4803550 eV
     3     E(REF-CI)=        7.5995946 eV   E(GMC-QDPT2)=        7.2676749 eV
 ----------------------------------------------------------------------------

 Main characters of perturbed GMC-QDPT states:

 State #    1  Energy =     -55.951951722  S =  0.500

      Det      Coef    Occupancy (Ignoring core)
      ---      ----    --------- --------- -----
        1    0.972500  11110001110000
       36   -0.078151  11110001101000
      143    0.052612  11011001100100
      393    0.052006  10110101010010
      717    0.054203  11010011100001

 State #    2  Energy =     -55.824051098  S =  0.500

      Det      Coef    Occupancy (Ignoring core)
      ---      ----    --------- --------- -----
        1   -0.082699  11110001110000
       36   -0.975734  11110001101000
      463   -0.053731  10110101001010
      823   -0.050743  10110011001001

 State #    3  Energy =     -55.684869731  S =  0.500

      Det      Coef    Occupancy (Ignoring core)
      ---      ----    --------- --------- -----
       71    0.975562  11110001011000
      248   -0.054183  11011001001100
      822   -0.055893  11010011001001

 <<<Max |V/de| = 2.507D-02  Thresh = 1.000D+00

 Oscillator strength (invalid if E(1)/=E(GS)):
 ----------------------------------------------------------------------------
   State                        1st order                           2nd order
 ----------------------------------------------------------------------------
     2     F(REF-CI)=        0.0030368420     F(GMC-PT2)=        0.0029271110
     3     F(REF-CI)=        0.0041924453     F(GMC-PT2)=        0.0041260696
 ----------------------------------------------------------------------------

 Dipole moment matrix elements, x, y, z, in A.U.
States    1    1       -0.0823240640        0.3268304465        0.6616202033
States    1    2        0.0246529202        0.0064808485        0.1835183006
States    1    3       -0.1107374680       -0.0918471399        0.0497430048
States    2    1        0.0246529202        0.0064808485        0.1835183006
States    2    2       -0.2290448383        0.2829323952        0.3467421425
States    2    3        0.2000202253        0.0636081779       -0.0020495637
States    3    1       -0.1107374680       -0.0918471399        0.0497430048
States    3    2        0.2000202253        0.0636081779       -0.0020495637
States    3    3       -0.0359492790        0.5591603231        0.2996184057

 Oscillator strength (valid only when positive): 
 ----------------------------------------------------------------------------
  States                        1st order                           2nd order
 ----------------------------------------------------------------------------
  1  1     F(REF-CI)=        0.0000000000     F(GMC-PT2)=        0.0000000000
  1  2     F(REF-CI)=       -0.0030368420     F(GMC-PT2)=       -0.0029271110
  1  3     F(REF-CI)=       -0.0041924453     F(GMC-PT2)=       -0.0041260696
  2  1     F(REF-CI)=        0.0030368420     F(GMC-PT2)=        0.0029271110
  2  2     F(REF-CI)=        0.0000000000     F(GMC-PT2)=        0.0000000000
  2  3     F(REF-CI)=       -0.0042303721     F(GMC-PT2)=       -0.0040880622
  3  1     F(REF-CI)=        0.0041924453     F(GMC-PT2)=        0.0041260696
  3  2     F(REF-CI)=        0.0042303721     F(GMC-PT2)=        0.0040880622
  3  3     F(REF-CI)=        0.0000000000     F(GMC-PT2)=        0.0000000000
 CPU     0: STEP CPU TIME=     1.94 TOTAL CPU TIME=         15.4 (      0.3 MIN)
 TOTAL WALL CLOCK TIME=         15.4 SECONDS, CPU UTILIZATION IS    99.94%

     !!! DIABATIZATION FOR REF CI STATES !!!

 *******************************************************
          $DMO GROUP FOUND IN THE INPUT.
        DIABATIZATION OF ADIABATIC STATES BEGINS.
     PROGRAMMED BY TAO ZENG (CARLETON UNIVERSITY).
               Email: toby.zeng@carleton.ca
     See T. Zeng, J. Chem. Phys. 2017, 146, 144103
 *******************************************************

 *************************************************************************
     STEP 1: TRANSFORMATION OF ADIABATIC STATES TO THE DMO REPRESENTATION
         See Atchity and Ruedenberg, J. Chem. Phys. 1999, 111, 2910
 *************************************************************************

Read in Diabatic Molecualr Orbitals:

                      1          2          3          4          5

    1  N  1  S    0.008609   0.000000   0.000000  -0.013219   0.279491
    2  N  1  S    0.442914  -0.000000   0.000000  -0.184329   0.867803
    3  N  1  S    0.276913   0.000000  -0.000000  -0.288315   0.144236
    4  N  1  X   -0.000000   0.493155  -0.024636  -0.000000  -0.000000
    5  N  1  Y    0.000000   0.024636   0.493155  -0.000000   0.000000
    6  N  1  Z    0.090197   0.000000   0.000000   0.593421   0.705309
    7  N  1  X   -0.000000   0.210628  -0.010522   0.000000   0.000000
    8  N  1  Y    0.000000   0.010522   0.210628  -0.000000  -0.000000
    9  N  1  Z   -0.004381   0.000000   0.000000   0.381592  -0.106092
   10  N  1 XX   -0.000457   0.010719  -0.000535  -0.012387   0.006153
   11  N  1 YY   -0.000457  -0.010719   0.000535  -0.012387   0.006153
   12  N  1 ZZ    0.000914  -0.000000   0.000000   0.024773  -0.012306
   13  N  1 XY    0.000000  -0.000618  -0.012377  -0.000000   0.000000
   14  N  1 XZ   -0.000000   0.026529  -0.001325  -0.000000   0.000000
   15  N  1 YZ    0.000000   0.001325   0.026529  -0.000000   0.000000
   16  H  2  S    0.194462  -0.176074   0.343485   0.112865  -0.523343
   17  H  2  S    0.003574  -0.023812   0.046452   0.024014  -0.054445
   18  H  2  X    0.018760   0.009101   0.022834   0.009336  -0.039151
   19  H  2  Y   -0.032493   0.022287  -0.020044  -0.016171   0.067811
   20  H  2  Z   -0.009251   0.008464  -0.016511   0.018769  -0.010566
   21  H  3  S    0.194462  -0.209430  -0.324227   0.112865  -0.523343
   22  H  3  S    0.003574  -0.028322  -0.043847   0.024014  -0.054445
   23  H  3  X    0.018760   0.006781  -0.023627   0.009336  -0.039151
   24  H  3  Y    0.032493  -0.024174  -0.017723   0.016171  -0.067811
   25  H  3  Z   -0.009251   0.010067   0.015585   0.018769  -0.010566
   26  H  4  S    0.194462   0.385503  -0.019258   0.112865  -0.523343
   27  H  4  S    0.003574   0.052134  -0.002604   0.024014  -0.054445
   28  H  4  X   -0.037519  -0.032295   0.001613  -0.018672   0.078302
   29  H  4  Y    0.000000   0.001067   0.021353  -0.000000   0.000000
   30  H  4  Z   -0.009251  -0.018530   0.000926   0.018769  -0.010566

                      6          7

    1  N  1  S    0.000000  -0.000000
    2  N  1  S    0.000000  -0.000000
    3  N  1  S   -0.000000   0.000000
    4  N  1  X   -0.930415  -0.002083
    5  N  1  Y   -0.002083   0.930415
    6  N  1  Z   -0.000000   0.000000
    7  N  1  X   -0.046866  -0.000105
    8  N  1  Y   -0.000105   0.046866
    9  N  1  Z   -0.000000   0.000000
   10  N  1 XX    0.001538   0.000003
   11  N  1 YY   -0.001538  -0.000003
   12  N  1 ZZ   -0.000000   0.000000
   13  N  1 XY   -0.000004   0.001776
   14  N  1 XZ    0.039985   0.000090
   15  N  1 YZ    0.000090  -0.039985
   16  H  2  S   -0.362630  -0.631354
   17  H  2  S   -0.065964  -0.114846
   18  H  2  X    0.002763  -0.037520
   19  H  2  Y    0.037435   0.040736
   20  H  2  Z    0.001882   0.003276
   21  H  3  S   -0.365454   0.629724
   22  H  3  S   -0.066477   0.114549
   23  H  3  X    0.002595   0.037532
   24  H  3  Y   -0.037617   0.040567
   25  H  3  Z    0.001896  -0.003268
   26  H  4  S    0.728084   0.001630
   27  H  4  S    0.132441   0.000297
   28  H  4  X   -0.062317  -0.000140
   29  H  4  Y    0.000055  -0.024345
   30  H  4  Z   -0.003778  -0.000008

NUMBER OF SUB ACTIVE SPACES:   1
ROTATE ACTIVE MOS TO DMOS IN EACH SUB-SPACE

SPACE  1:

OVERLAP BETWEEN ORTHONORMAL AND PRE-ORTHONORMAL REF. DMOS

             1           2           3           4           5

    1    0.9728787  -0.0170124   0.0368851  -0.0088786   0.0072911
    2   -0.0170124   0.9772937   0.0662898  -0.0141931   0.0091228
    3    0.0368851   0.0662898   0.9458152   0.0458394  -0.0690844
    4   -0.0088786  -0.0141931   0.0458394   0.9947195  -0.0125111
    5    0.0072911   0.0091228  -0.0690844  -0.0125111   1.1314449
    6   -0.0018660  -0.0019990   0.0489315  -0.0087026  -0.0511344
    7   -0.0004719  -0.0623591   0.0184219  -0.0477048  -0.0232203

             6           7

    1   -0.0018660  -0.0004719
    2   -0.0019990  -0.0623591
    3    0.0489315   0.0184219
    4   -0.0087026  -0.0477048
    5   -0.0511344  -0.0232203
    6    1.0547862   0.0178291
    7    0.0178291   1.0750326
REFERENCE DMOS AFTER ORTHONORMALIZATION:

                      1          2          3          4          5

    1  N  1  S    0.006171  -0.003298   0.018011  -0.010686   0.248576
    2  N  1  S    0.446206  -0.004436   0.045385  -0.173179   0.766706
    3  N  1  S    0.280601  -0.001903   0.012101  -0.286839   0.123210
    4  N  1  X    0.008324   0.507435  -0.020405   0.001967  -0.044422
    5  N  1  Y   -0.018250   0.045279   0.506618   0.018732   0.046883
    6  N  1  Z    0.093331   0.006496   0.010091   0.607222   0.632441
    7  N  1  X    0.004774   0.218219  -0.025217   0.004540  -0.004952
    8  N  1  Y   -0.008733  -0.002349   0.224408  -0.008465   0.014020
    9  N  1  Z    0.000853   0.009256  -0.026259   0.384594  -0.090879
   10  N  1 XX   -0.000413   0.010778  -0.000418  -0.012194   0.005272
   11  N  1 YY   -0.000926  -0.011466   0.002518  -0.012738   0.005462
   12  N  1 ZZ    0.001339   0.000688  -0.002100   0.024932  -0.010734
   13  N  1 XY    0.000525   0.000418  -0.013291   0.000710  -0.000746
   14  N  1 XZ    0.000761   0.027681  -0.005337   0.001056   0.001212
   15  N  1 YZ   -0.001223  -0.003135   0.029316  -0.003222   0.000980
   16  H  2  S    0.184862  -0.236228   0.366721   0.056506  -0.468156
   17  H  2  S    0.001407  -0.034324   0.052629   0.014812  -0.049672
   18  H  2  X    0.018906   0.006392   0.020798   0.006569  -0.034127
   19  H  2  Y   -0.032695   0.025423  -0.019406  -0.012274   0.061179
   20  H  2  Z   -0.008309   0.010543  -0.019791   0.019971  -0.010159
   21  H  3  S    0.216317  -0.141564  -0.376971   0.149556  -0.488455
   22  H  3  S    0.005819  -0.017880  -0.049293   0.030160  -0.051409
   23  H  3  X    0.021061   0.012193  -0.030659   0.012448  -0.035757
   24  H  3  Y    0.034501  -0.019451  -0.022886   0.018006  -0.062156
   25  H  3  Z   -0.009676   0.009338   0.014719   0.018039  -0.008257
   26  H  4  S    0.217942   0.415402  -0.131831   0.128378  -0.443071
   27  H  4  S    0.006137   0.055838  -0.017866   0.026451  -0.043737
   28  H  4  X   -0.040549  -0.035848   0.014680  -0.020011   0.067846
   29  H  4  Y   -0.000963  -0.002038   0.023417  -0.002225   0.000923
   30  H  4  Z   -0.009664  -0.018908   0.001350   0.018281  -0.009028

                      6          7

    1  N  1  S    0.011060   0.004214
    2  N  1  S    0.034289   0.007468
    3  N  1  S    0.003712  -0.010323
    4  N  1  X   -0.883007   0.041622
    5  N  1  Y   -0.037565   0.861880
    6  N  1  Z    0.034698   0.040276
    7  N  1  X   -0.043276   0.013807
    8  N  1  Y   -0.010591   0.039712
    9  N  1  Z   -0.000267   0.016095
   10  N  1 XX    0.001649   0.000181
   11  N  1 YY   -0.001419  -0.001136
   12  N  1 ZZ   -0.000230   0.000955
   13  N  1 XY    0.000552   0.001910
   14  N  1 XZ    0.038257   0.001219
   15  N  1 YZ   -0.000620  -0.037991
   16  H  2  S   -0.372869  -0.608615
   17  H  2  S   -0.065484  -0.109052
   18  H  2  X    0.000698  -0.035335
   19  H  2  Y    0.038572   0.039822
   20  H  2  Z    0.002302   0.004623
   21  H  3  S   -0.361224   0.586192
   22  H  3  S   -0.064825   0.107667
   23  H  3  X    0.001705   0.035906
   24  H  3  Y   -0.038069   0.037103
   25  H  3  Z    0.000901  -0.002147
   26  H  4  S    0.676918   0.012868
   27  H  4  S    0.124572   0.001987
   28  H  4  X   -0.056761  -0.000960
   29  H  4  Y   -0.000621  -0.023234
   30  H  4  Z   -0.003977  -0.000450

 -------------------------------------------
       MAXIMIZING MORMO OVERLAP TERM        
 -------------------------------------------
   SWEEP    VALUE       PROGRESS
     0     4.13515
     1     6.83256     2.69741508
     2     6.95015     0.11758608
     3     6.95024     0.00009265
     4     6.95024     0.00000000
     5     6.95024    -0.00000000
     6     6.95024     0.00000000
 THE ROTATION IS DONE
FLIPPING SIGN FOR ORBITAL   7
ACTIVE ORBITALS AFTER MORMO:

                      1          2          3          4          5

    1  N  1  S    0.004302  -0.010072   0.029074  -0.012480   0.199150
    2  N  1  S    0.420281  -0.029491   0.070826  -0.190374   0.708842
    3  N  1  S    0.335148   0.044211  -0.063793  -0.268716   0.189819
    4  N  1  X   -0.005407   0.478472   0.007399  -0.015146  -0.029693
    5  N  1  Y   -0.000995   0.064411   0.466971   0.043799   0.016715
    6  N  1  Z    0.080803  -0.004379   0.039867   0.603788   0.631147
    7  N  1  X    0.019711   0.241999  -0.072387   0.023889  -0.019423
    8  N  1  Y   -0.025574  -0.042528   0.261138  -0.060847   0.057816
    9  N  1  Z    0.028353   0.026277  -0.078213   0.385354  -0.085892
   10  N  1 XX    0.001415   0.007777  -0.011610  -0.007291  -0.013174
   11  N  1 YY   -0.001431  -0.007339   0.011516  -0.014937   0.008759
   12  N  1 ZZ    0.000016  -0.000439   0.000095   0.022228   0.004414
   13  N  1 XY    0.007119   0.014318  -0.026536   0.004349  -0.044492
   14  N  1 XZ    0.001041   0.018967  -0.002972  -0.003098   0.017860
   15  N  1 YZ    0.002166  -0.002391   0.017325   0.001492  -0.046289
   16  H  2  S    0.182766  -0.203694   0.348759   0.081876  -0.488180
   17  H  2  S   -0.002589  -0.077078   0.096928   0.016782  -0.066402
   18  H  2  X    0.012465   0.014856   0.012825   0.009635  -0.033082
   19  H  2  Y   -0.029369   0.018388  -0.012417  -0.018248   0.043589
   20  H  2  Z   -0.015021   0.013506  -0.029112   0.016903  -0.007341
   21  H  3  S    0.189941  -0.177112  -0.332762   0.120773  -0.464525
   22  H  3  S    0.006985  -0.007190  -0.069837   0.037070  -0.069338
   23  H  3  X    0.026591  -0.011018  -0.036950   0.011585  -0.043190
   24  H  3  Y    0.021374  -0.027914  -0.004953   0.006909  -0.034976
   25  H  3  Z   -0.003114   0.007120   0.005524   0.020744  -0.016770
   26  H  4  S    0.189183   0.372335  -0.053566   0.109812  -0.420602
   27  H  4  S    0.010448   0.094880  -0.053807   0.036238  -0.064250
   28  H  4  X   -0.027235  -0.029947  -0.010919  -0.011085   0.047731
   29  H  4  Y   -0.015773  -0.027406   0.018791  -0.008460   0.016385
   30  H  4  Z   -0.004431  -0.011486  -0.006264   0.019017  -0.021907

                      6          7

    1  N  1  S    0.005749  -0.043372
    2  N  1  S    0.003381  -0.105434
    3  N  1  S    0.037948   0.138712
    4  N  1  X   -0.888172   0.032106
    5  N  1  Y   -0.034073   0.846919
    6  N  1  Z    0.061500   0.077726
    7  N  1  X   -0.042192   0.032169
    8  N  1  Y   -0.021103   0.069284
    9  N  1  Z   -0.032596  -0.010642
   10  N  1 XX   -0.019613   0.050219
   11  N  1 YY    0.017856  -0.040447
   12  N  1 ZZ    0.001756  -0.009772
   13  N  1 XY    0.049202   0.027602
   14  N  1 XZ    0.044657  -0.019755
   15  N  1 YZ    0.011943  -0.030876
   16  H  2  S   -0.331174  -0.591533
   17  H  2  S   -0.118286  -0.160142
   18  H  2  X    0.030743  -0.040360
   19  H  2  Y    0.036788   0.013110
   20  H  2  Z    0.011922   0.010494
   21  H  3  S   -0.357929   0.543369
   22  H  3  S   -0.078722   0.131378
   23  H  3  X   -0.021327   0.043103
   24  H  3  Y   -0.036994   0.024503
   25  H  3  Z   -0.025654   0.004072
   26  H  4  S    0.628206  -0.036027
   27  H  4  S    0.182923   0.011486
   28  H  4  X   -0.050208   0.019752
   29  H  4  Y   -0.029415  -0.024226
   30  H  4  Z    0.007845  -0.024008

Actually Used Diabatic Molecualr Orbitals:

                      1          2          3          4          5

    1  N  1  S    0.004302  -0.010072   0.029074  -0.012480   0.199150
    2  N  1  S    0.420281  -0.029491   0.070826  -0.190374   0.708842
    3  N  1  S    0.335148   0.044211  -0.063793  -0.268716   0.189819
    4  N  1  X   -0.005407   0.478472   0.007399  -0.015146  -0.029693
    5  N  1  Y   -0.000995   0.064411   0.466971   0.043799   0.016715
    6  N  1  Z    0.080803  -0.004379   0.039867   0.603788   0.631147
    7  N  1  X    0.019711   0.241999  -0.072387   0.023889  -0.019423
[...]
      841   -0.021265    0.021265  +2+200-
       77   -0.020510    0.020510  2+-20+0
      754   -0.020151    0.020151  -+2+002

 ---------------------------------------
    -DIABATIC STATES IN PROTOTYPES-     
 ---------------------------------------

     STATE:    1
 Group Ref#    Coefficients
     1    1    0.950307
     2    2   -0.006341
     3    3    0.004377

WEIGHT OF LISTED PROTOTYPES:   90.31%

     STATE:    2
 Group Ref#    Coefficients
     1    1   -0.006341
     2    2    0.943452
     3    3   -0.005001

WEIGHT OF LISTED PROTOTYPES:   89.02%

     STATE:    3
 Group Ref#    Coefficients
     1    1    0.004377
     2    2   -0.005001
     3    3    0.943755

WEIGHT OF LISTED PROTOTYPES:   89.07%

 --------------------------------------------------
 IN DIRECT MAX. DIABATIZATION FOR GMC-QDPT

 DIRECT MAXIMIZATION (DM) WITHOUT TRUNCATING ADIABATS
 EXPANSIONS INTO THE REFERENCE CONFIGURATION SPACE
 --------------------------------------------------

 -------------------------------------------
 - DM DIABT PT HAMILTONIAN MATRIX ELEMENTS -
 -------------------------------------------
                                            
 --- DIABATIC ENERGIES (DIAGONAL ELEMENT) ---       HARTREE            EV
 STATE #  1'S GMC-PT-LEVEL DIABATIC ENERGY=     -55.928778604       0.000000000
 STATE #  2'S GMC-PT-LEVEL DIABATIC ENERGY=     -55.755711343       4.709400034
 STATE #  3'S GMC-PT-LEVEL DIABATIC ENERGY=     -55.776382604       4.146906379

 --- DIABATIC COUPLINGS (OFF DIAGONAL ELEMENTS)---  HATREE            EV
 STATE #  1 &  2'S GMC-PT-LEVEL COUPLING  =       0.013517785       0.367837672
 STATE #  1 &  3'S GMC-PT-LEVEL COUPLING  =      -0.051318224      -1.396439993
 STATE #  2 &  3'S GMC-PT-LEVEL COUPLING  =       0.078060820       2.124143114

 ---------------------------------------
     - ROTATION TO DIABATIC STATES -    
 ---------------------------------------
 ROWS=ADIABATIC, COLUMNS=DIABATIC STATES

             1           2           3

    1   -0.9111638   0.2049537  -0.3574556
    2   -0.3991295  -0.6545077   0.6421178
    3   -0.1023530   0.7277456   0.6781668

 ---------------------------------------
          - DIABATIC STATES -           
 ---------------------------------------

 State #    1  Energy =     -55.928778604

      Det      Coef        Coefp    Occupancy (Ignoring core)
      ---      ----        ----    --------- --------- -----
        1    0.929516   -0.929516  222+000
        3   -0.126858   -0.126858  22-++00
      141    0.122023    0.122023  22++-00
       17    0.101151    0.101151  22-+00+
       16   -0.092978    0.092978  222000+
       18   -0.088863    0.088863  2-2+00+
      736    0.087345   -0.087345  2+2+00-
        7    0.075547    0.075547  22-+0+0
      717   -0.073549   -0.073549  220+002
      393   -0.072828   -0.072828  202+020
      701   -0.071828   -0.071828  22++00-
      351   -0.071206   -0.071206  22++0-0
        8   -0.068302    0.068302  2-2+0+0
      402    0.038033   -0.038033  2+-+0-+
      215   -0.037270   -0.037270  022+200
      386    0.037237   -0.037237  2+2+0-0
        5    0.036910    0.036910  -22++00
      708    0.036837   -0.036837  2-++0+-
      390    0.034755   -0.034755  -+2++-0
      218    0.034428   -0.034428  +-2+-+0
        4    0.034425   -0.034425  2-2++00
        6   -0.033876    0.033876  22200+0
      176   -0.032270    0.032270  2+2+-00
      705   -0.032259   -0.032259  -2+++0-
      227   -0.031696   -0.031696  +2-+-0+
       76    0.031065    0.031065  2+2-0+0
      212    0.030202    0.030202  +220200
      179   -0.030037   -0.030037  202+200
       51   -0.029323    0.029323  22+-00+
      122    0.026972    0.026972  +2-200+
     1051   -0.026400   -0.026400  2+++0--
      773    0.025324   -0.025324  +2-++0-
        2    0.025115   -0.025115  2220+00
      702    0.024571    0.024571  22+0+0-
      113   -0.024407    0.024407  +-220+0
      387   -0.024373    0.024373  2+20+-0
       20   -0.024262   -0.024262  22-0+0+
      738   -0.023796   -0.023796  2+-++0-
      424   -0.023383   -0.023383  +-2++-0
      158   -0.023132   -0.023132  2-++-0+
      184   -0.022822   -0.022822  -+2+-+0
       29   -0.022716   -0.022716  2--+0++
      159    0.022333   -0.022333  -2++-0+
      211   -0.021051   -0.021051  +22+-00

 State #    2  Energy =     -55.755711343

      Det      Coef        Coefp    Occupancy (Ignoring core)
      ---      ----        ----    --------- --------- -----
       71   -0.929862    0.929862  2+22000
      246    0.136571    0.136571  2++2-00
       73   -0.130554    0.130554  2+-2+00
      736    0.108848   -0.108848  2+2+00-
       86   -0.103462   -0.103462  2+2-00+
       77    0.086080   -0.086080  2+-20+0
       88    0.079192   -0.079192  202200+
      456   -0.078146   -0.078146  2++20-0
      822    0.077170   -0.077170  2+02002
      806   -0.062843   -0.062843  2++200-
       87    0.057145   -0.057145  2+-200+
       36    0.045079    0.045079  22+2000
      813    0.043768   -0.043768  20+20+-
      320    0.038030    0.038030  0+22200
      106   -0.037768   -0.037768  +222000
      316    0.035948    0.035948  ++22-00
       99   -0.035099    0.035099  20-20++
      810   -0.034834   -0.034834  -++2+0-
      111    0.034255   -0.034255  +22-0+0
      323   -0.033584    0.033584  +022-+0
      332   -0.033345    0.033345  ++-2-0+
       38   -0.032999    0.032999  2202+00
      317    0.032317   -0.032317  ++2-200
      177    0.032252   -0.032252  2+20200
      180   -0.032065    0.032065  -+2+200
       90    0.031658    0.031658  2+--+0+
      386    0.029317   -0.029317  2+2+0-0
      807   -0.028715    0.028715  2++-+0-
      911    0.028386    0.028386  2+++-0-
      192   -0.028029    0.028029  2+-+-0+
        6    0.027678   -0.027678  22200+0
      183   -0.027416    0.027416  202+-+0
      122    0.027249    0.027249  +2-200+
      108   -0.026441   -0.026441  +2-2+00
      878    0.025418    0.025418  ++-2+0-
      263   -0.024857   -0.024857  20+2-0+
      264    0.024814   -0.024814  -++2-0+
      391    0.023684   -0.023684  2+20020
      526   -0.023278   -0.023278  ++220-0
       51    0.022592   -0.022592  22+-00+
       75   -0.022103   -0.022103  -+22+00
      752    0.020998    0.020998  2+-+002
      753    0.020457    0.020457  202+002

 State #    3  Energy =     -55.776382604

      Det      Coef        Coefp    Occupancy (Ignoring core)
      ---      ----        ----    --------- --------- -----
       36   -0.926824   -0.926824  22+2000
       38    0.134130   -0.134130  2202+00
       51   -0.113354    0.113354  22+-00+
       53    0.110998    0.110998  2-+200+
      701    0.107183    0.107183  22++00-
      806   -0.101229   -0.101229  2++200-
      106    0.084876    0.084876  +222000
      463    0.073654   -0.073654  20+2020
       39   -0.068975   -0.068975  2-+2+00
       42   -0.064265    0.064265  22020+0
       41   -0.057352    0.057352  22+-0+0
       52   -0.052266    0.052266  220200+
      351    0.047835    0.047835  22++0-0
       71   -0.044563    0.044563  2+22000
      472   -0.044090   -0.044090  2+020-+
      246    0.041904    0.041904  2++2-00
      123    0.040559   -0.040559  +-2200+
      288   -0.037000   -0.037000  +-+2-+0
      285    0.036875   -0.036875  02+2200
      460   -0.036488   -0.036488  -++2+-0
      297    0.034702   -0.034702  +202-0+
       64    0.034602   -0.034602  2-020++
       55   -0.033607   -0.033607  220-+0+
      145   -0.032978   -0.032978  -2++200
      282    0.032694    0.032694  +2+-200
       43    0.032290    0.032290  2-+20+0
      142    0.031866    0.031866  22+0200
      249    0.031422   -0.031422  20+2200
       40   -0.031206    0.031206  -2+2+00
      456   -0.029821   -0.029821  2++20-0
      157    0.028954   -0.028954  220+-0+
      109   -0.027968    0.027968  +-22+00
      457   -0.027145    0.027145  2++-+-0
       73    0.027070   -0.027070  2+-2+00
      148   -0.025900   -0.025900  2-++-+0
      876   -0.025479   -0.025479  ++2200-
       16   -0.024879    0.024879  222000+
      112   -0.024708   -0.024708  +2-20+0
      121   -0.024675    0.024675  +22-00+
      494    0.024571   -0.024571  +-+2+-0
      718    0.023881   -0.023881  2-++002
      254    0.023238   -0.023238  -++2-+0
      808    0.022932   -0.022932  2+02+0-
      821   -0.022238    0.022238  2++-002
      843   -0.021171   -0.021171  +202+0-
      859    0.020823   -0.020823  02+2002
      122   -0.020229   -0.020229  +2-200+

 ---------------------------------------
      - DIABATIC STATES IN CMO -        
 ---------------------------------------

 State #    1  Energy =     -55.928778604

      Det      Coef        Coefp    Occupancy (Ignoring core)
      ---      ----        ----    --------- --------- -----
        1    0.853476   -0.853476  222+000
       36    0.458046    0.458046  22+2000
       71    0.108138   -0.108138  2+22000
      717   -0.058609   -0.058609  220+002
      393   -0.047372   -0.047372  202+020
      716   -0.043089   -0.043089  22+0002
      143   -0.042890   -0.042890  220+200
      753   -0.039660   -0.039660  202+002
        8   -0.033582    0.033582  2-2+0+0
      703    0.033335    0.033335  220++0-
      106   -0.033104   -0.033104  +222000
      708   -0.032146    0.032146  2-++0+-
        3    0.031965    0.031965  22-++00
       16    0.031373   -0.031373  222000+
      719    0.030292    0.030292  -2++002
      704    0.027459   -0.027459  2-+++0-
      463   -0.026997    0.026997  20+2020
      215   -0.025755   -0.025755  022+200
        4    0.025008   -0.025008  2-2++00
      157   -0.024016    0.024016  220+-0+
      401    0.023654    0.023654  2+200-+
      786    0.023638    0.023638  +220002
      122   -0.023217   -0.023217  +2-200+
      823   -0.023205    0.023205  20+2002
      778   -0.022312   -0.022312  +-2+0+-
      108    0.021817    0.021817  +2-2+00
      707    0.021554    0.021554  220+0+-
      404   -0.021461   -0.021461  -+2+0-+
      741   -0.021335    0.021335  2+200+-
       52   -0.021066    0.021066  220200+
        7    0.020880    0.020880  22-+0+0
      179   -0.020604   -0.020604  202+200
       76    0.020509    0.020509  2+2-0+0
       37   -0.020169    0.020169  22+-+00

 State #    2  Energy =     -55.755711343

      Det      Coef        Coefp    Occupancy (Ignoring core)
      ---      ----        ----    --------- --------- -----
       71   -0.693634    0.693634  2+22000
       36    0.641137    0.641137  22+2000
        1   -0.256125    0.256125  222+000
      248    0.053940   -0.053940  2+02200
      123   -0.046309    0.046309  +-2200+
      262    0.041008    0.041008  2+02-0+
       18    0.036624   -0.036624  2-2+00+
       86   -0.034318   -0.034318  2+2-00+
      822    0.034093   -0.034093  2+02002
      249   -0.032887    0.032887  20+2200
      111    0.032683   -0.032683  +22-0+0
      751    0.030704   -0.030704  2+20002
      823   -0.027317    0.027317  20+2002
      808   -0.026527    0.026527  2+02+0-
      250   -0.026333   -0.026333  -++2200
       89    0.025570    0.025570  -+2200+
       53   -0.024563   -0.024563  2-+200+
      253   -0.023658   -0.023658  20+2-+0
      463   -0.023472    0.023472  20+2020
      743    0.021717    0.021717  202+0+-
      876    0.020739    0.020739  ++2200-
      716   -0.020628   -0.020628  22+0002
       78   -0.020347    0.020347  20220+0
      320    0.020225    0.020225  0+22200
       42    0.020101   -0.020101  22020+0

 State #    3  Energy =     -55.776382604

      Det      Coef        Coefp    Occupancy (Ignoring core)
      ---      ----        ----    --------- --------- -----
       71   -0.677864    0.677864  2+22000
       36   -0.581334   -0.581334  22+2000
        1    0.398229   -0.398229  222+000
      122    0.044884    0.044884  +2-200+
      822    0.044277   -0.044277  2+02002
      463    0.042972   -0.042972  20+2020
      823    0.036756   -0.036756  20+2002
       16    0.035996   -0.035996  222000+
      108   -0.031913   -0.031913  +2-2+00
      751    0.030581   -0.030581  2+20002
       88   -0.029890    0.029890  202200+
      143   -0.026778   -0.026778  220+200
      107   -0.026588    0.026588  +22-+00
      472    0.025521    0.025521  2+020-+
       51    0.024857   -0.024857  22+-00+
      462    0.024410   -0.024410  2+02020
      753   -0.024090   -0.024090  202+002
      471    0.023720    0.023720  2++-0-+
      752   -0.023665   -0.023665  2+-+002
       54   -0.023620    0.023620  -2+200+
      821    0.022801   -0.022801  2++-002
      248    0.022755   -0.022755  2+02200
       18    0.021693   -0.021693  2-2+00+
      458    0.021545   -0.021545  2+02+-0
      320    0.021412    0.021412  0+22200
      841   -0.021265    0.021265  +2+200-
       77   -0.020510    0.020510  2+-20+0
      754   -0.020151    0.020151  -+2+002

 ---------------------------------------
    -DIABATIC STATES IN PROTOTYPES-     
 ---------------------------------------

     STATE:    1
 Group Ref#    Coefficients
     1    1    0.950307
     2    2   -0.006318
     3    3    0.004362

WEIGHT OF LISTED PROTOTYPES:   90.31%

     STATE:    2
 Group Ref#    Coefficients
     1    1   -0.006364
     2    2    0.943452
     3    3   -0.005002

WEIGHT OF LISTED PROTOTYPES:   89.02%

     STATE:    3
 Group Ref#    Coefficients
     1    1    0.004392
     2    2   -0.005001
     3    3    0.943755

WEIGHT OF LISTED PROTOTYPES:   89.07%

     DIRECT MAX. DIABATIZATION FINISHED    
 CPU     0: STEP CPU TIME=     0.25 TOTAL CPU TIME=         15.7 (      0.3 MIN)
 TOTAL WALL CLOCK TIME=         15.7 SECONDS, CPU UTILIZATION IS   100.00%

DIABATS FOR SPIN-ORBIT CALCULATION ARE READY

TRANSITION DIPOLES BETWEEN ADIABATS (in A.U.):

STATE PAIR      X         Y         Z
    1    1 -0.082324  0.326830  0.661620
    2    1  0.024653  0.006481  0.183518
    2    2 -0.229045  0.282932  0.346742
    3    1 -0.110737 -0.091847  0.049743
    3    2  0.200020  0.063608 -0.002050
    3    3 -0.035949  0.559160  0.299618


TRANSITION DIPOLES BETWEEN DIABATS (in A.U.):

STATE PAIR      X         Y         Z
    1    1 -0.091592  0.315050  0.750258
    2    1  0.001964  0.023179  0.005580
    2    2 -0.350809  0.341339  0.302567
    3    1  0.020566  0.024253 -0.003598
    3    2  0.111665  0.148098  0.014687
    3    3  0.095083  0.512534  0.255156

TRANSITION DIPOLES BETWEEN DIRECT MAX. DIABATS (in A.U.):

STATE PAIR      X         Y         Z
    1    1 -0.091593  0.315051  0.750258
    2    1  0.001956  0.023177  0.005569
    2    2 -0.350809  0.341338  0.302567
    3    1  0.020566  0.024253 -0.003590
    3    2  0.111664  0.148098  0.014688
    3    3  0.095083  0.512535  0.255156
 No $TRANST Group Found.
 Quit without doing spin-orbit coupling
 ..... DONE WITH MP2 ENERGY .....
 CPU     0: STEP CPU TIME=     0.00 TOTAL CPU TIME=         15.7 (      0.3 MIN)
 TOTAL WALL CLOCK TIME=         15.7 SECONDS, CPU UTILIZATION IS    99.94%
            100000000  WORDS OF DYNAMIC MEMORY USED
 EXECUTION OF GAMESS TERMINATED NORMALLY Wed Nov 16 20:16:32 2022
 DDI: 715512 bytes (0.7 MB / 0 MWords) used by master data server.

 ----------------------------------------
 CPU timing information for all processes
 ========================================
 0: 15.339 + 0.340 = 15.679
 ----------------------------------------
Note: The following floating-point exceptions are signalling: IEEE_DENORMAL
 ddikick.x: exited gracefully.
unset echo
----- accounting info -----
Files used on the master node io002 were:
-rw-r--r-- 1 bsonghao nooijen   20708 Nov 16 20:16 /scratch/bsonghao/nh3_diabatization_2d_at_mode_7_8_dist0.7_-0.2.F05
-rw-r--r-- 1 bsonghao nooijen  363520 Nov 16 20:16 /scratch/bsonghao/nh3_diabatization_2d_at_mode_7_8_dist0.7_-0.2.F09
-rw-r--r-- 1 bsonghao nooijen 1995920 Nov 16 20:16 /scratch/bsonghao/nh3_diabatization_2d_at_mode_7_8_dist0.7_-0.2.F10
-rw-r--r-- 1 bsonghao nooijen  131264 Nov 16 20:16 /scratch/bsonghao/nh3_diabatization_2d_at_mode_7_8_dist0.7_-0.2.F13
-rw-r--r-- 1 bsonghao nooijen  180312 Nov 16 20:16 /scratch/bsonghao/nh3_diabatization_2d_at_mode_7_8_dist0.7_-0.2.F15
-rw-r--r-- 1 bsonghao nooijen       0 Nov 16 20:16 /scratch/bsonghao/nh3_diabatization_2d_at_mode_7_8_dist0.7_-0.2.F16
-rw-r--r-- 1 bsonghao nooijen    9808 Nov 16 20:16 /scratch/bsonghao/nh3_diabatization_2d_at_mode_7_8_dist0.7_-0.2.F70
-rw-r--r-- 1 bsonghao nooijen    9808 Nov 16 20:16 /scratch/bsonghao/nh3_diabatization_2d_at_mode_7_8_dist0.7_-0.2.F71
-rw-r--r-- 1 bsonghao nooijen   19608 Nov 16 20:16 /scratch/bsonghao/nh3_diabatization_2d_at_mode_7_8_dist0.7_-0.2.F72
-rw-r--r-- 1 bsonghao nooijen   19608 Nov 16 20:16 /scratch/bsonghao/nh3_diabatization_2d_at_mode_7_8_dist0.7_-0.2.F73
-rw-r--r-- 1 bsonghao nooijen 1920824 Nov 16 20:16 /scratch/bsonghao/nh3_diabatization_2d_at_mode_7_8_dist0.7_-0.2.F74
-rw-r--r-- 1 bsonghao nooijen       0 Nov 16 20:16 /scratch/bsonghao/nh3_diabatization_2d_at_mode_7_8_dist0.7_-0.2.F75
-rw-r--r-- 1 bsonghao nooijen   58848 Nov 16 20:16 /scratch/bsonghao/nh3_diabatization_2d_at_mode_7_8_dist0.7_-0.2.F76
-rw-r--r-- 1 bsonghao nooijen       0 Nov 16 20:16 /scratch/bsonghao/nh3_diabatization_2d_at_mode_7_8_dist0.7_-0.2.F77
-rw-r--r-- 1 bsonghao nooijen    1864 Nov 16 20:16 /scratch/bsonghao/nh3_diabatization_2d_at_mode_7_8_dist0.7_-0.2.F78
-rw-r--r-- 1 bsonghao nooijen   39208 Nov 16 20:16 /scratch/bsonghao/nh3_diabatization_2d_at_mode_7_8_dist0.7_-0.2.F79
-rw-r--r-- 1 bsonghao nooijen     104 Nov 16 20:16 /scratch/bsonghao/nh3_diabatization_2d_at_mode_7_8_dist0.7_-0.2.F80
-rw-r--r-- 1 bsonghao nooijen   13472 Nov 16 20:16 /scratch/bsonghao/nh3_diabatization_2d_at_mode_7_8_dist0.7_-0.2.F81
-rw-r--r-- 1 bsonghao nooijen      16 Nov 16 20:16 /scratch/bsonghao/nh3_diabatization_2d_at_mode_7_8_dist0.7_-0.2.F82
-rw-r--r-- 1 bsonghao nooijen   19216 Nov 16 20:16 /scratch/bsonghao/nh3_diabatization_2d_at_mode_7_8_dist0.7_-0.2.F83
-rw-r--r-- 1 bsonghao nooijen   29712 Nov 16 20:16 /scratch/bsonghao/nh3_diabatization_2d_at_mode_7_8_dist0.7_-0.2.F84
-rw-r--r-- 1 bsonghao nooijen  401576 Nov 16 20:16 /scratch/bsonghao/nh3_diabatization_2d_at_mode_7_8_dist0.7_-0.2.F85
-rw-r--r-- 1 bsonghao nooijen  903672 Nov 16 20:16 /scratch/bsonghao/nh3_diabatization_2d_at_mode_7_8_dist0.7_-0.2.F86
-rw-r--r-- 1 bsonghao nooijen     656 Nov 16 20:16 /scratch/bsonghao/nh3_diabatization_2d_at_mode_7_8_dist0.7_-0.2.F87
-rw-r--r-- 1 bsonghao nooijen   41104 Nov 16 20:16 /scratch/bsonghao/nh3_diabatization_2d_at_mode_7_8_dist0.7_-0.2.F88
-rw-r--r-- 1 bsonghao nooijen     240 Nov 16 20:16 /scratch/bsonghao/nh3_diabatization_2d_at_mode_7_8_dist0.7_-0.2.F89
-rw-r--r-- 1 bsonghao nooijen       0 Nov 16 20:16 /scratch/bsonghao/nh3_diabatization_2d_at_mode_7_8_dist0.7_-0.2.F90
-rw-r--r-- 1 bsonghao nooijen   13760 Nov 16 20:16 /scratch/bsonghao/nh3_diabatization_2d_at_mode_7_8_dist0.7_-0.2.F91
-rw-r--r-- 1 bsonghao nooijen   22776 Nov 16 20:16 /scratch/bsonghao/nh3_diabatization_2d_at_mode_7_8_dist0.7_-0.2.F92
-rw-r--r-- 1 bsonghao nooijen   23168 Nov 16 20:16 /scratch/bsonghao/nh3_diabatization_2d_at_mode_7_8_dist0.7_-0.2.F93
-rw-r--r-- 1 bsonghao nooijen   22776 Nov 16 20:16 /scratch/bsonghao/nh3_diabatization_2d_at_mode_7_8_dist0.7_-0.2.F94
-rw-r--r-- 1 bsonghao nooijen   13760 Nov 16 20:16 /scratch/bsonghao/nh3_diabatization_2d_at_mode_7_8_dist0.7_-0.2.F95
-rw-r--r-- 1 bsonghao nooijen   29440 Nov 16 20:16 /scratch/bsonghao/nh3_diabatization_2d_at_mode_7_8_dist0.7_-0.2.F96
-rw-r--r-- 1 bsonghao nooijen    1184 Nov 16 20:16 /scratch/bsonghao/nh3_diabatization_2d_at_mode_7_8_dist0.7_-0.2.F97
-rw-r--r-- 1 bsonghao nooijen    9808 Nov 16 20:16 /scratch/bsonghao/nh3_diabatization_2d_at_mode_7_8_dist0.7_-0.2.F98
-rw-r--r-- 1 bsonghao nooijen   30264 Nov 16 20:16 /scratch/bsonghao/nh3_diabatization_2d_at_mode_7_8_dist0.7_-0.2.F99
ls: No match.
ls: No match.
ls: No match.
Wed 16 Nov 2022 08:16:35 PM EST
0.296u 0.034s 0:19.05 1.6%	0+0k 48+224io 0pf+0w
