----- GAMESS execution script 'rungms' -----
This job is running on host io002
under operating system Linux at Wed 16 Nov 2022 07:17:32 PM EST
Available scratch disk space (Kbyte units) at beginning of the job is
Filesystem       1K-blocks       Used   Available Use% Mounted on
/dev/sdc1      15378471580 3278917120 11318349060  23% /scratch
GAMESS temporary binary files will be written to /scratch/bsonghao
GAMESS supplementary output files will be written to /home/bsonghao/.gamess_ascii_files/267638
Copying input file nh3_diabatization_2d_at_mode_7_8_dist-0.1_0.4.inp to your run's scratch directory...
cp nh3_diabatization_2d_at_mode_7_8_dist-0.1_0.4.inp /scratch/bsonghao/nh3_diabatization_2d_at_mode_7_8_dist-0.1_0.4.F05
unset echo
/home/bjb2chen/gamess/ddikick.x /home/bjb2chen/gamess/gamess.00.x nh3_diabatization_2d_at_mode_7_8_dist-0.1_0.4 -ddi 1 1 io002 -scr /scratch/bsonghao

 Distributed Data Interface kickoff program.
 Initiating 1 compute processes on 1 nodes to run the following command:
 /home/bjb2chen/gamess/gamess.00.x nh3_diabatization_2d_at_mode_7_8_dist-0.1_0.4 

          ******************************************************
          *         GAMESS VERSION = 02 AUG 2018 (R2)         *
          *             FROM IOWA STATE UNIVERSITY             *
          * M.W.SCHMIDT, K.K.BALDRIDGE, J.A.BOATZ, S.T.ELBERT, *
          *   M.S.GORDON, J.H.JENSEN, S.KOSEKI, N.MATSUNAGA,   *
          *          K.A.NGUYEN, S.J.SU, T.L.WINDUS,           *
          *       TOGETHER WITH M.DUPUIS, J.A.MONTGOMERY       *
          *         J.COMPUT.CHEM.  14, 1347-1363(1993)        *
          **************** 64 BIT LINUX VERSION ****************

  SINCE 1993, STUDENTS AND POSTDOCS WORKING AT IOWA STATE UNIVERSITY
  AND ALSO IN THEIR VARIOUS JOBS AFTER LEAVING ISU HAVE MADE IMPORTANT
  CONTRIBUTIONS TO THE CODE:
     IVANA ADAMOVIC, CHRISTINE AIKENS, YURI ALEXEEV, POOJA ARORA,
     ANDREY ASADCHEV, ROB BELL, PRADIPTA BANDYOPADHYAY, JONATHAN BENTZ,
     BRETT BODE, KURT BRORSEN, CALEB CARLIN, GALINA CHABAN, WEI CHEN,
     CHEOL HO CHOI, PAUL DAY, ALBERT DEFUSCO, NUWAN DESILVA, TIM DUDLEY,
     DMITRI FEDOROV, ALEX FINDLATER, GRAHAM FLETCHER, MARK FREITAG,
     KURT GLAESEMANN, ANASTASIA GUININA,
     DAN KEMP, GRANT MERRILL, NORIYUKI MINEZAWA, JONATHAN MULLIN,
     TAKESHI NAGATA, SEAN NEDD, HEATHER NETZLOFF, BOSILJKA NJEGIC, RYAN OLSON,
     MIKE PAK, BUU PHAM,
     SPENCER PRUITT, LUKE ROSKOP, JIM SHOEMAKER, LYUDMILA SLIPCHENKO,
     TONY SMITH, SAROM SOK LEANG, JIE SONG, TETSUYA TAKETSUGU, SIMON WEBB,
     PENG XU, SOOHAENG YOO, FEDERICO ZAHARIEV

  ADDITIONAL CODE HAS BEEN PROVIDED BY COLLABORATORS IN OTHER GROUPS:
     IOWA STATE UNIVERSITY:
          JOE IVANIC, AARON WEST, LAIMUTIS BYTAUTAS, KLAUS RUEDENBERG
     UNIVERSITY OF TOKYO: KIMIHIKO HIRAO, TAKAHITO NAKAJIMA,
          TAKAO TSUNEDA, MUNEAKI KAMIYA, SUSUMU YANAGISAWA,
          KIYOSHI YAGI, MAHITO CHIBA, SEIKEN TOKURA, NAOAKI KAWAKAMI
     UNIVERSITY OF AARHUS: FRANK JENSEN
     UNIVERSITY OF IOWA: VISVALDAS KAIRYS, HUI LI
     NATIONAL INST. OF STANDARDS AND TECHNOLOGY: WALT STEVENS, DAVID GARMER
     UNIVERSITY OF PISA: BENEDETTA MENNUCCI, JACOPO TOMASI
     UNIVERSITY OF MEMPHIS: HENRY KURTZ, PRAKASHAN KORAMBATH
     UNIVERSITY OF ALBERTA: TOBY ZENG, MARIUSZ KLOBUKOWSKI
     UNIVERSITY OF NEW ENGLAND: MARK SPACKMAN
     MIE UNIVERSITY: HIROAKI UMEDA
     NAT. INST. OF ADVANCED INDUSTRIAL SCIENCE AND TECHNOLOGY: KAZUO KITAURA
     MICHIGAN STATE UNIVERSITY:
          KAROL KOWALSKI, MARTA WLOCH, JEFFREY GOUR, JESSE LUTZ,
          WEI LI, JUN SHEN, J. EMILIANO DEUSTUA, PIOTR PIECUCH
     UNIVERSITY OF MINNESOTA:
          YINAN SHU
     UNIVERSITY OF SILESIA: MONIKA MUSIAL, STANISLAW KUCHARSKI
     FACULTES UNIVERSITAIRES NOTRE-DAME DE LA PAIX:
          OLIVIER QUINET, BENOIT CHAMPAGNE
     UNIVERSITY OF CALIFORNIA - SANTA BARBARA: BERNARD KIRTMAN
     INSTITUTE FOR MOLECULAR SCIENCE:
          KAZUYA ISHIMURA, MICHIO KATOUDA, AND SHIGERU NAGASE
     UNIVERSITY OF NOTRE DAME: ANNA POMOGAEVA, DAN CHIPMAN
     KYUSHU UNIVERSITY:
          HARUYUKI NAKANO,
          FENG LONG GU, JACEK KORCHOWIEC, MARCIN MAKOWSKI, AND YURIKO AOKI,
          HIROTOSHI MORI AND EISAKU MIYOSHI
     PENNSYLVANIA STATE UNIVERSITY:
          TZVETELIN IORDANOV, CHET SWALINA, JONATHAN SKONE,
          SHARON HAMMES-SCHIFFER
     WASEDA UNIVERSITY:
          MASATO KOBAYASHI, TOMOKO AKAMA, TSUGUKI TOUMA,
          TAKESHI YOSHIKAWA, YASUHIRO IKABATA, JUNJI SEINO,
          YUYA NAKAJIMA, HIROMI NAKAI
     NANJING UNIVERSITY: SHUHUA LI
     UNIVERSITY OF NEBRASKA:
          PEIFENG SU, DEJUN SI, NANDUN THELLAMUREGE, YALI WANG, HUI LI
     UNIVERSITY OF ZURICH: ROBERTO PEVERATI, KIM BALDRIDGE
     N. COPERNICUS UNIVERSITY AND JACKSON STATE UNIVERSITY:
          MARIA BARYSZ
     UNIVERSITY OF COPENHAGEN: Jimmy Kromann, CASPER STEINMANN
     TOKYO INSTITUTE OF TECHNOLOGY: HIROYA NAKATA
     NAGOYA UNIVERSITY: YOSHIO NISHIMOTO, STEPHAN IRLE
     MOSCOW STATE UNIVERSITY: VLADIMIR MIRONOV

 EXECUTION OF GAMESS BEGUN Wed Nov 16 19:17:32 2022

            ECHO OF THE FIRST FEW INPUT CARDS -
 INPUT CARD> $system kdiag=3 mwords=100 memddi=1000 parall=.t. $end                         
 INPUT CARD> $contrl runtyp=energy ispher=1 $end                                            
 INPUT CARD> $contrl icut=9 itol=20 inttyp=rysquad qmttol=1.0d-05 nosym=1 $end              
 INPUT CARD> $scf    npunch=2 conv=1.0d-06 dirscf=.t.      $end                             
 INPUT CARD> $contrl scftyp=mcscf  mult=2 maxit=200 icharg=1 mplevl=2 $end                  
 INPUT CARD> $guess  guess=moread norb=29 purify=.t. $end                                   
 INPUT CARD> $basis  gbasis=ccd $end                                                        
 INPUT CARD> $mcscf  cistep=gmcci fullnr=.t. finci=mos                                      
 INPUT CARD>         acurcy=1.d-6 maxit=100 $end                                            
 INPUT CARD> $trans  dirtrf=.t. $end                                                        
 INPUT CARD> $mrmp   mrpt=gmcpt rdvecs=.f. $end                                             
 INPUT CARD> $gmcpt  nmofzc=0 nmodoc=1 nmoact=7 nelact=7 stsym(1)=A                         
 INPUT CARD>         reftyp=ormas nspace=1 mstart(1)=2 mine(1)=7 maxe(1)=7                  
 INPUT CARD>         kstate(1)=1,1,1                                                        
 INPUT CARD>         wstate(1)=1,1,1                                                        
 INPUT CARD>         iwgt=0 thrwgt=-1.0 krot=.f. kszdoe=.f. knospn=.f.                      
 INPUT CARD>         thrde=-1.0 edshft=0.02 $end                                            
 INPUT CARD> $data                                                                          
 INPUT CARD> NH3+ 3 states calculation at NH3 structure.                                    
 INPUT CARD> c1                                                                             
 INPUT CARD>N 7.0 -0.024915672000000007 0.006228902999999999 -0.1693809002                  
 INPUT CARD>H 1.0 -0.29988636699999993 0.9520316798000001 0.1808057421                      
 INPUT CARD>H 1.0 -0.22346105799999996 -0.9656086458000002 0.2265272091                     
 INPUT CARD>H 1.0 0.8695573719999999 -0.07297573599999999 0.3620510411000001                
 INPUT CARD>$end                                                                            
 INPUT CARD>--- OPTIMIZED RHF      MO-S --- GENERATED AT Mon Nov 14 16:47:08 2022           
 INPUT CARD>E=      -56.3825050291, E(NUC)=   11.8429239490                                 
 INPUT CARD> $VEC                                                                           
 INPUT CARD> 1  1-1.00134066E+00-2.25158504E-03 3.44925845E-03 0.00000000E+00 0.00000000E+00
 INPUT CARD> 1  2-2.13170927E-03 0.00000000E+00 0.00000000E+00 6.57129898E-04-6.87950443E-05
 INPUT CARD> 1  3-6.87950443E-05 1.37590089E-04 0.00000000E+00 0.00000000E+00 0.00000000E+00
 INPUT CARD> 1  4 3.25502815E-04-4.84772356E-04 3.62525460E-04-6.27912517E-04-3.45956485E-04
 INPUT CARD> 1  5 3.25502815E-04-4.84772356E-04 3.62525460E-04 6.27912517E-04-3.45956485E-04
 INPUT CARD> 1  6 3.25502815E-04-4.84772356E-04-7.25050921E-04 0.00000000E+00-3.45956485E-04
 INPUT CARD> 2  1 1.31286642E-02-4.05911371E-01-2.82090992E-01 0.00000000E+00 0.00000000E+00
 INPUT CARD> 2  2-7.71489043E-02 0.00000000E+00 0.00000000E+00 9.73717494E-03 6.62450916E-04
 INPUT CARD> 2  3 6.62450916E-04-1.32490183E-03 0.00000000E+00 0.00000000E+00 0.00000000E+00
 INPUT CARD> 2  4-1.96090317E-01-1.96656153E-02-1.74855877E-02 3.02859263E-02 8.68214399E-03
 INPUT CARD> 2  5-1.96090317E-01-1.96656153E-02-1.74855877E-02-3.02859263E-02 8.68214399E-03
 INPUT CARD> 2  6-1.96090317E-01-1.96656153E-02 3.49711754E-02 0.00000000E+00 8.68214399E-03
 INPUT CARD> 3  1 0.00000000E+00 0.00000000E+00 0.00000000E+00 4.48608762E-01 0.00000000E+00
 INPUT CARD> 3  2 0.00000000E+00 2.18692520E-01 0.00000000E+00 0.00000000E+00 1.30198027E-02
 INPUT CARD> 3  3-1.30198027E-02 0.00000000E+00 0.00000000E+00 2.71832968E-02 0.00000000E+00
 INPUT CARD> 3  4-1.85332726E-01-7.03958951E-02 8.47929477E-03 1.95242443E-02 8.32835058E-03
 INPUT CARD> 3  5-1.85332726E-01-7.03958951E-02 8.47929477E-03-1.95242443E-02 8.32835058E-03
 INPUT CARD> 3  6 3.70665453E-01 1.40791790E-01-2.53376884E-02 0.00000000E+00-1.66567012E-02
 INPUT CARD> 4  1 0.00000000E+00 0.00000000E+00 0.00000000E+00 0.00000000E+00 4.48608762E-01
 INPUT CARD> 4  2 0.00000000E+00 0.00000000E+00 2.18692520E-01 0.00000000E+00 0.00000000E+00
 INPUT CARD> 4  3 0.00000000E+00 0.00000000E+00-1.50339731E-02 0.00000000E+00 2.71832968E-02
 INPUT CARD> 4  4 3.21005698E-01 1.21929267E-01 1.95242443E-02-1.40653607E-02-1.44251263E-02
  100000000 WORDS OF MEMORY AVAILABLE

     BASIS OPTIONS
     -------------
     GBASIS=CCD          IGAUSS=       0      POLAR=NONE    
     NDFUNC=       0     NFFUNC=       0     DIFFSP=       F
     NPFUNC=       0      DIFFS=       F     BASNAM=        


     RUN TITLE
     ---------
  NH3+ 3 states calculation at NH3 structure.                                    

 THE POINT GROUP OF THE MOLECULE IS C1      
 THE ORDER OF THE PRINCIPAL AXIS IS     0

 ATOM      ATOMIC                      COORDINATES (BOHR)
           CHARGE         X                   Y                   Z
 N           7.0    -0.0470837929        0.0117709199       -0.3200834889
 H           1.0    -0.5667030611        1.7990790065        0.3416733096
 H           1.0    -0.4222801685       -1.8247357519        0.4280743540
 H           1.0     1.6432251637       -0.1379041448        0.6841772612

          INTERNUCLEAR DISTANCES (ANGS.)
          ------------------------------

                1 N          2 H          3 H          4 H     

   1 N       0.0000000    1.0453624 *  1.0680036 *  1.0434440 *
   2 H       1.0453624 *  0.0000000    1.9197072 *  1.5655953 *
   3 H       1.0680036 *  1.9197072 *  0.0000000    1.4176916 *
   4 H       1.0434440 *  1.5655953 *  1.4176916 *  0.0000000  

  * ... LESS THAN  3.000


     ATOMIC BASIS SET
     ----------------
 THE CONTRACTED PRIMITIVE FUNCTIONS HAVE BEEN UNNORMALIZED
 THE CONTRACTED BASIS FUNCTIONS ARE NOW NORMALIZED TO UNITY

  SHELL TYPE  PRIMITIVE        EXPONENT          CONTRACTION COEFFICIENT(S)

 N         

      1   S       1          9046.0000000    0.000699617413
      1   S       2          1357.0000000    0.005386054630
      1   S       3           309.3000000    0.027391021189
      1   S       4            87.7300000    0.103150591982
      1   S       5            28.5600000    0.278570663317
      1   S       6            10.2100000    0.448294849454
      1   S       7             3.8380000    0.278085928395
      1   S       8             0.7466000    0.015431561233

      2   S       9          9046.0000000   -0.000304990096
      2   S      10          1357.0000000   -0.002408026379
      2   S      11           309.3000000   -0.011944448725
      2   S      12            87.7300000   -0.048925992909
      2   S      13            28.5600000   -0.134472724725
      2   S      14            10.2100000   -0.315112577700
      2   S      15             3.8380000   -0.242857832550
      2   S      16             0.7466000    1.094382206854

      3   S      17             0.2248000    1.000000000000

      4   P      18            13.5500000    0.058905676772
      4   P      19             2.9170000    0.320461106714
      4   P      20             0.7973000    0.753042061792

      5   P      21             0.2185000    1.000000000000

      6   D      22             0.8170000    1.000000000000

 H         

      7   S      23            13.0100000    0.033498726390
      7   S      24             1.9620000    0.234800801174
      7   S      25             0.4446000    0.813682957883

      8   S      26             0.1220000    1.000000000000

      9   P      27             0.7270000    1.000000000000

 H         

     10   S      28            13.0100000    0.033498726390
     10   S      29             1.9620000    0.234800801174
     10   S      30             0.4446000    0.813682957883

     11   S      31             0.1220000    1.000000000000

     12   P      32             0.7270000    1.000000000000

 H         

     13   S      33            13.0100000    0.033498726390
     13   S      34             1.9620000    0.234800801174
     13   S      35             0.4446000    0.813682957883

     14   S      36             0.1220000    1.000000000000

     15   P      37             0.7270000    1.000000000000

 TOTAL NUMBER OF BASIS SET SHELLS             =   15
 NUMBER OF CARTESIAN GAUSSIAN BASIS FUNCTIONS =   30
 NOTE: THIS RUN WILL RESTRICT THE MO VARIATION SPACE TO SPHERICAL HARMONICS.
 THE NUMBER OF ORBITALS KEPT IN THE VARIATIONAL SPACE WILL BE PRINTED LATER.
 NUMBER OF ELECTRONS                          =    9
 CHARGE OF MOLECULE                           =    1
 SPIN MULTIPLICITY                            =    2
 NUMBER OF OCCUPIED ORBITALS (ALPHA)          =    5
 NUMBER OF OCCUPIED ORBITALS (BETA )          =    4
 TOTAL NUMBER OF ATOMS                        =    4
 THE NUCLEAR REPULSION ENERGY IS       11.5488176537

     $CONTRL OPTIONS
     ---------------
 SCFTYP=MCSCF        RUNTYP=ENERGY       EXETYP=RUN     
 MPLEVL=       2     CITYP =NONE         CCTYP =NONE         VBTYP =NONE    
 DFTTYP=NONE         TDDFT =NONE    
 MULT  =       2     ICHARG=       1     NZVAR =       0     COORD =UNIQUE  
 PP    =NONE         RELWFN=NONE         LOCAL =NONE         NUMGRD=       F
 ISPHER=       1     NOSYM =       1     MAXIT =     200     UNITS =ANGS    
 PLTORB=       F     MOLPLT=       F     AIMPAC=       F     FRIEND=        
 NPRINT=       7     IREST =       0     GEOM  =INPUT   
 NORMF =       0     NORMP =       0     ITOL  =      20     ICUT  =       9
 INTTYP=RYSQUAD      GRDTYP=BEST         QMTTOL= 1.0E-05

     $SYSTEM OPTIONS
     ---------------
  REPLICATED MEMORY=   100000000 WORDS (ON EVERY NODE).
 DISTRIBUTED MEMDDI=        1000 MILLION WORDS IN AGGREGATE,
 MEMDDI DISTRIBUTED OVER   1 PROCESSORS IS  1000000000 WORDS/PROCESSOR.
 TOTAL MEMORY REQUESTED ON EACH PROCESSOR=  1100000000 WORDS.
 TIMLIM=      525600.00 MINUTES, OR     365.0 DAYS.
 PARALL= T  BALTYP=  DLB     KDIAG=    3  COREFL= F
 MXSEQ2=     300 MXSEQ3=     150  mem10=         0

          ----------------
          PROPERTIES INPUT
          ----------------

     MOMENTS            FIELD           POTENTIAL          DENSITY
 IEMOM =       1   IEFLD =       0   IEPOT =       0   IEDEN =       0
 WHERE =COMASS     WHERE =NUCLEI     WHERE =NUCLEI     WHERE =NUCLEI  
 OUTPUT=BOTH       OUTPUT=BOTH       OUTPUT=BOTH       OUTPUT=BOTH    
 IEMINT=       0   IEFINT=       0                     IEDINT=       0
                                                       MORB  =       0

     -------------------------------
     INTEGRAL TRANSFORMATION OPTIONS
     -------------------------------
     NWORD  =            0
     CUTOFF = 1.0E-09     MPTRAN =       0
     DIRTRF =       T     AOINTS =DUP     

          ----------------------
          MCSCF INPUT PARAMETERS
          ----------------------
 CONVERGER SELECTION: FOCAS = F  SOSCF = F  FULLNR = T  QUD = F  JACOBI = F
 SECULAR EQUATION METHOD CISTEP = GMCCI   
 --- GENERAL INPUT OPTIONS:
 MAXIT =     100  MICIT =       1  ACURCY= 1.000E-06
 DAMP  =   0.000  CANONC=       T  ENGTOL= 1.000E-10
 EKT   =       F  NPUNCH=       2  NWORD =         0
 REGENERATE CI AFTER CONVERGENCE = NONE    
 DIABATIZATION AFTER CONVERGENCE =        F
 --- INPUT FOR FULLNR CONVERGER:
 METHOD=DM2       FORS  =       F  DROPC =       T
 LINSER=       F  FCORE =       F  NORB  =      30

          ----------------------
          INTEGRAL INPUT OPTIONS
          ----------------------
 NOPK  =       1 NORDER=       0 SCHWRZ=       T

 ------------------------------------------
 MULTIREFERENCE PERTURBATION THEORY CONTROL
 ------------------------------------------
 MRPT=GMCPT    READ CONVERGED MCSCF VECTORS= F


     ------------------------------------------
     THE POINT GROUP IS C1 , NAXIS= 1, ORDER= 1
     ------------------------------------------

 -- VARIATIONAL SPACE WILL BE RESTRICTED TO PURE SPHERICAL HARMONICS ONLY --
 AFTER EXCLUDING CONTAMINANT COMBINATIONS FROM THE CARTESIAN GAUSSIAN BASIS
 SET, THE NUMBER OF SPHERICAL HARMONICS KEPT IN THE VARIATION SPACE IS   29

     DIMENSIONS OF THE SYMMETRY SUBSPACES ARE
 A   =   29

 ..... DONE SETTING UP THE RUN .....
 CPU     0: STEP CPU TIME=     0.03 TOTAL CPU TIME=          0.0 (      0.0 MIN)
 TOTAL WALL CLOCK TIME=          0.0 SECONDS, CPU UTILIZATION IS    60.00%

          ********************
          1 ELECTRON INTEGRALS
          ********************
 TIME TO DO   DIPOLE INTEGRALS=      0.00
 ...... END OF ONE-ELECTRON INTEGRALS ......
 CPU     0: STEP CPU TIME=     0.00 TOTAL CPU TIME=          0.0 (      0.0 MIN)
 TOTAL WALL CLOCK TIME=          0.0 SECONDS, CPU UTILIZATION IS    60.00%

          -------------
          GUESS OPTIONS
          -------------
          GUESS =MOREAD            NORB  =      29          NORDER=       0
          MIX   =       F          PRTMO =       F          PUNMO =       F
          TOLZ  = 1.0E-08          TOLE  = 1.0E-05
          SYMDEN=       F          PURIFY=       T

 INITIAL GUESS ORBITALS GENERATED BY MOREAD   ROUTINE.

 STATISTICS FOR GENERATION OF SYMMETRY ORBITAL -Q- MATRIX
 NUMBER OF CARTESIAN ATOMIC ORBITALS=         30
 NUMBER OF SPHERICAL CONTAMINANTS DROPPED=     1
 NUMBER OF LINEARLY DEPENDENT MOS DROPPED=     0
 TOTAL NUMBER OF MOS IN VARIATION SPACE=      29
 ORBITAL PURIFICATION WILL OCCUR

 SYMMETRIES FOR INITIAL GUESS ORBITALS FOLLOW.   BOTH SET(S).
     5 ORBITALS ARE OCCUPIED (    1 CORE ORBITALS).
     1=A        2=A        3=A        4=A        5=A        6=A        7=A   
     8=A        9=A       10=A       11=A       12=A       13=A       14=A   
    15=A       16=A       17=A       18=A       19=A       20=A       21=A   
    22=A       23=A       24=A       25=A       26=A       27=A       28=A   
    29=A   
 ...... END OF INITIAL ORBITAL SELECTION ......
 CPU     0: STEP CPU TIME=     0.02 TOTAL CPU TIME=          0.0 (      0.0 MIN)
 TOTAL WALL CLOCK TIME=          0.0 SECONDS, CPU UTILIZATION IS   100.00%

                    ----------------------
                    AO INTEGRAL TECHNOLOGY
                    ----------------------
     S,P,L SHELL ROTATED AXIS INTEGRALS, REPROGRAMMED BY
        KAZUYA ISHIMURA (IMS) AND JOSE SIERRA (SYNSTAR).
     S,P,D,L SHELL ROTATED AXIS INTEGRALS PROGRAMMED BY
        KAZUYA ISHIMURA (INSTITUTE FOR MOLECULAR SCIENCE).
     S,P,D,F,G SHELL TO TOTAL QUARTET ANGULAR MOMENTUM SUM 5,
        ERIC PROGRAM BY GRAHAM FLETCHER (ELORET AND NASA ADVANCED
        SUPERCOMPUTING DIVISION, AMES RESEARCH CENTER).
     S,P,D,F,G,L SHELL GENERAL RYS QUADRATURE PROGRAMMED BY
        MICHEL DUPUIS (PACIFIC NORTHWEST NATIONAL LABORATORY).

          --------------------
          2 ELECTRON INTEGRALS
          --------------------

 DIRECT SCF METHOD SKIPS INTEGRAL STORAGE ON DISK.
 DIRECT TRANSFORMATION SKIPS AO INTEGRAL STORAGE ON DISK.
  ...... END OF TWO-ELECTRON INTEGRALS .....
 STEP CPU TIME =     0.02 TOTAL CPU TIME =          0.1 (      0.0 MIN)
 TOTAL WALL CLOCK TIME=          0.1 SECONDS, CPU UTILIZATION IS    87.50%
 DDI: Creating Array [0] - 900 x 36 = 32400 words.
 DDI: Creating Array [1] - 21 x 288 = 6048 words.
 DDI: Creating Array [2] - 36 x 36 = 1296 words.
 DDI: Creating Array [3] - 465 x 36 = 16740 words.

          -----------------
          MCSCF CALCULATION
          -----------------

 ----- NUCLEAR ENERGY ----- =        11.5488176537

     -------------------------------------------------
     GMC-PT/GMC-QDPT or general MCSCF input parameters
     -------------------------------------------------
 # of frozen core orbs. =         0 ->         0
 # of doubly occ. orbs. =         1
 # of active      orbs. =         7
 # of virtual     orbs. =        21
 # of active electrons  =         7
 # of states in CI      =         3
 Highest state in CI    =         3
 kstate =  1 1 1
 avecoe =  0.333 0.333 0.333
 State symmetry           = A           
 Assigned symmetry number = 1

 <<<Act. MO sym.: 1111111

 <<<Division of 1-ext.:  0
 <<<Division of 2-ext.:  0

 *** Reference space

 Reference type: ORMAS (= Occupation restricted multiple active space)
 # of orbitals          =  7
 # of minimum electrons =  7
 # of maximum electrons =  7
 State symmetry    =    1 (input)
 2*Sz              =    1 (input)
 Spin multiplicity =    2 (input)
 Dimension of reference space =      1225  (from      3432 walks)

 Dimension of reference space =      1225  (from      1225 walks)

 <<<Ionized spaces for Ref-CI:
      0:         1225 /   -1-0:         1960 /  0-1-0:         2891

 EVALUATING EXCHANGE INTEGRALS FOR DIRECT INTEGRAL TRANSFORMATION
 SCHWARZ INEQUALITY OVERHEAD:       465 INTEGRALS, T=        0.01

     --------------------------------------------
     PARTIAL TWO ELECTRON INTEGRAL TRANSFORMATION
     --------------------------------------------

 NUMBER OF CORE MOLECULAR ORBITALS     =    1
 NUMBER OF OCCUPIED MOLECULAR ORBITALS =    8
 TOTAL NUMBER OF MOLECULAR ORBITALS    =   29
 TOTAL NUMBER OF ATOMIC ORBITALS       =   30
 THRESHOLD FOR KEEPING TRANSFORMED 2E- INTEGRALS = 1.000E-09

 -------------------------------     ------------------------------
 DISTRIBUTED DATA TRANSFORMATION     PROGRAM WRITTEN BY G. FLETCHER
 -------------------------------     ------------------------------

 THE DISTRIBUTED MEMORY REQUIRED FOR THIS STEP IS MEMDDI=         1 MWORDS
 CREATING DISTRIBUTED STORAGE FOR [VIR OCC|VIR OCC] INTEGRALS
 CREATING DISTRIBUTED STORAGE FOR [VIR OCC|OCC OCC] INTEGRALS
 CREATING DISTRIBUTED STORAGE FOR [OCC OCC|OCC OCC] INTEGRALS
 CREATING DISTRIBUTED STORAGE FOR [VIR VIR|OCC OCC] INTEGRALS
 FOR    1 PROCESSORS, THE REPLICATED MEMORY NEEDED IS       73700 WORDS.
 SCHWARZ INEQUALITY OVERHEAD:       465 INTEGRALS, T=        0.01

      DIRECT 4-INDEX TRANSFORMATION 
      SCHWARZ INEQUALITY TEST SKIPPED          0 INTEGRAL BLOCKS
 ----- FROZEN CORE ENERGY =       -47.7497666843
 ... END OF INTEGRAL TRANSFORMATION ...
 CPU     0: STEP CPU TIME=     0.22 TOTAL CPU TIME=          0.3 (      0.0 MIN)
 TOTAL WALL CLOCK TIME=          0.3 SECONDS, CPU UTILIZATION IS    96.67%

     --------------------------------     -----------------------------
     MCHF NEWTON-RAPHSON OPTIMIZATION     CODE WRITTEN BY MICHEL DUPUIS
     --------------------------------     -----------------------------
     PARALLEL VERSION WRITTEN BY G. FLETCHER (ELORET)
     NASA ADVANCED SUPERCOMPUTING DIVISION, AMES RESEARCH CENTER

 NUMBER OF INDEPENDENT ORBITAL ROTATION PARAMETERS =   175
 ..... DONE SOLVING NEWTON-RAPHSON EQUATIONS .....
 CPU     0: STEP CPU TIME=     0.85 TOTAL CPU TIME=          1.1 (      0.0 MIN)
 TOTAL WALL CLOCK TIME=          1.2 SECONDS, CPU UTILIZATION IS    98.28%
 ..... DONE WITH NTN-RPH ORBITAL ROTATIONS ..... 
 CPU     0: STEP CPU TIME=     0.00 TOTAL CPU TIME=          1.1 (      0.0 MIN)
 TOTAL WALL CLOCK TIME=          1.2 SECONDS, CPU UTILIZATION IS    98.28%
 MAXIMUM MEMORY USED BY NTN-RPH CODE WAS     57645 WORDS.

 ITER     TOTAL ENERGY      DEL(E)  LAGRANGIAN ASYMMETRY   SQCDF  MICIT   DAMP
   1      -55.660775314 -0.660775314  0.130604   14    4 1.501E-01  1   0.0000
   2      -55.701408694 -0.040633380  0.022859   12    5 4.532E-01  1   0.0000
   3      -55.734596524 -0.033187830  0.012389   11    6 2.136E-01  1   0.0248
   4      -55.748522231 -0.013925707  0.004243   11    6 3.788E-02  1   0.0044
   5      -55.750209425 -0.001687194  0.000693   12    5 9.767E-04  1   0.0000
   6      -55.750254558 -0.000045133  0.000224   22    5 7.044E-05  1   0.0000
   7      -55.750258673 -0.000004115  0.000099   12    5 1.014E-05  1   0.0000
   8      -55.750259320 -0.000000647  0.000044   22    5 1.757E-06  1   0.0000
   9      -55.750259438 -0.000000118  0.000022   22    5 3.517E-07  1   0.0000
  10      -55.750259462 -0.000000024  0.000011   22    5 8.152E-08  1   0.0000
  11      -55.750259468 -0.000000006  0.000006   22    5 2.159E-08  1   0.0000
  12      -55.750259470 -0.000000002  0.000003   22    5 6.255E-09  1   0.0000
  13      -55.750259470 -0.000000000  0.000002   22    5 1.911E-09  1   0.0000
  14      -55.750259470 -0.000000000  0.000001   12    7 6.041E-10  1   0.0000

          --------------------
          LAGRANGIAN CONVERGED
          --------------------

 FINAL MCSCF ENERGY IS      -55.7502594701 AFTER  14 ITERATIONS

 -MCCI- BASED ON OPTIMIZED ORBITALS
 ----------------------------------

 PLEASE NOTE: IF THE ACTIVE ORBITALS ARE CANONICALIZED BELOW,
 THE FOLLOWING CI EXPANSION COEFFICIENTS AND THE DENSITY DO NOT
 CORRESPOND TO THE PRINTED ORBITALS.  THE PRINTED EXPANSIONS MATCH
 THE ORBITALS USED DURING THE LAST ITERATION.  IF YOU WISH TO SEE
 CI EXPANSIONS BASED ON THE CANONICAL (OR NATURAL) ORBITALS, YOU
 MUST RUN A CI CALCULATION WITH THAT ORBITAL CHOICE READ IN $VEC.

 Averaged energy =     -55.750259470

 State #    1  Energy =     -55.891200952  S =  0.500

      Det      Coef    Occupancy (Ignoring core)
      ---      ----    --------- --------- -----
        1   -0.937492  11110001110000
        2   -0.054436  11101001110000
        5    0.063239  01111001110000
        8    0.126383  10110101110000
       17    0.131778  11010011110000
       71    0.167236  11110001011000
      386   -0.090349  11110001010010
      393   -0.072138  10110101010010
      701   -0.110022  11110001100001

 State #    2  Energy =     -55.732021673  S =  0.500

      Det      Coef    Occupancy (Ignoring core)
      ---      ----    --------- --------- -----
        1   -0.158154  11110001110000
       36    0.197490  11110001101000
       71   -0.932209  11110001011000
       75    0.057501  01111001011000
       78    0.070193  10110101011000
       87    0.097593  11010011011000
      316   -0.054396  11110000011100
      806    0.096079  11110001001001
      822    0.052059  11010011001001

 State #    3  Energy =     -55.627555785  S =  0.500

      Det      Coef    Occupancy (Ignoring core)
      ---      ----    --------- --------- -----
       36    0.948538  11110001101000
       43   -0.076906  10110101101000
       52   -0.066422  11010011101000
       71    0.193052  11110001011000
      281    0.068135  11110000101100
      456    0.095651  11110001001010
      463    0.074359  10110101001010

 DENSITY MATRIX OVER ACTIVE MO-S

             1           2           3           4           5

    1    1.9781206
    2    0.0142296   1.6342910
    3   -0.0006328  -0.0003303   1.6354888
    4    0.0022386   0.0024825   0.0002048   1.6547329
    5    0.0985190  -0.0220293  -0.0000569   0.0401114   0.0262533
    6   -0.0000560  -0.1368197   0.0051099   0.0295543   0.0045933
    7   -0.0032742  -0.0047530   0.1511650   0.0009848  -0.0006751

             6           7

    6    0.0379452
    7   -0.0002518   0.0331681

 FORMING THE "STANDARD FOCK OPERATOR" IN DIRECT AO INTEGRAL MODE...
 ONLY THE    1 CORE AND   21 VIRTUAL ORBITALS WILL BE CANONICALIZED

          ----------------------
          MCSCF NATURAL ORBITALS
          ----------------------

                      1          2          3          4          5
                  -15.9854     1.9836     1.6563     1.6499     1.6454
                     A          A          A          A          A   
    1  N  1  S    1.001253   0.008936  -0.010516   0.000939  -0.002245
    2  N  1  S   -0.001848   0.438064  -0.176235   0.037518  -0.058968
    3  N  1  S   -0.006336   0.297013  -0.278334   0.051868  -0.087939
    4  N  1  X    0.000008   0.032957  -0.081921  -0.112257   0.504007
    5  N  1  Y    0.000048  -0.004209   0.044887   0.468231   0.123361
    6  N  1  Z    0.001140   0.095078   0.590054  -0.051088   0.030090
    7  N  1  X    0.000057  -0.003534  -0.065354  -0.043410   0.250901
    8  N  1  Y    0.000002  -0.000576   0.021874   0.172523   0.058977
    9  N  1  Z   -0.000454   0.008203   0.384597  -0.023729  -0.004649
   10  N  1 XX   -0.000171  -0.001512  -0.013024  -0.002105   0.013387
   11  N  1 YY    0.000358   0.000584  -0.010962   0.004567  -0.015015
   12  N  1 ZZ   -0.000187   0.000927   0.023986  -0.002462   0.001628
   13  N  1 XY   -0.000096  -0.000787  -0.000308  -0.004080  -0.001541
   14  N  1 XZ    0.000138   0.001396  -0.000007  -0.006167   0.024860
   15  N  1 YZ   -0.000012  -0.000768   0.001678   0.021401   0.005468
   16  H  2  S   -0.001991   0.178057   0.137409   0.352681  -0.071324
   17  H  2  S    0.000564  -0.000009   0.030732   0.044108  -0.019114
   18  H  2  X   -0.000356   0.012346   0.004934   0.012405   0.018287
   19  H  2  Y    0.000977  -0.033290  -0.017349  -0.032601   0.009485
   20  H  2  Z    0.000399  -0.005346   0.018238  -0.016505   0.004196
   21  H  3  S   -0.001877   0.179209   0.089658  -0.297475  -0.225529
   22  H  3  S    0.000480   0.000095   0.026387  -0.039168  -0.049949
   23  H  3  X   -0.000268   0.008794   0.002828  -0.017963   0.012564
   24  H  3  Y   -0.000927   0.032957   0.013736  -0.027246  -0.022717
   25  H  3  Z    0.000420  -0.007077   0.020508   0.011080   0.010731
   26  H  4  S   -0.001965   0.209740   0.091727  -0.109543   0.366843
   27  H  4  S    0.000317   0.007702   0.020732  -0.014507   0.075883
   28  H  4  X    0.000917  -0.034806  -0.018799   0.009821  -0.026392
   29  H  4  Y   -0.000072   0.003217   0.001510   0.021660   0.007617
   30  H  4  Z    0.000499  -0.014709   0.019789   0.004088  -0.020215

                      6          7          8
                    0.0265     0.0195     0.0187
                     A          A          A   
    1  N  1  S   -0.097791  -0.201051   0.107117
    2  N  1  S   -0.309263  -0.660142   0.333589
    3  N  1  S    0.014502  -0.169743   0.037107
    4  N  1  X    0.769585  -0.341322  -0.002679
    5  N  1  Y    0.123459   0.332362   0.880757
    6  N  1  Z   -0.115152  -0.625864   0.239264
    7  N  1  X   -0.007046  -0.059894   0.008573
    8  N  1  Y   -0.001947   0.040310   0.069509
    9  N  1  Z    0.033608   0.084372  -0.045119
   10  N  1 XX   -0.041832  -0.019772   0.007461
   11  N  1 YY    0.043736   0.012789  -0.007740
   12  N  1 ZZ   -0.001904   0.006983   0.000279
   13  N  1 XY   -0.002182  -0.023838  -0.030228
   14  N  1 XZ   -0.016126   0.038822  -0.009288
   15  N  1 YZ   -0.005625  -0.026179  -0.048003
   16  H  2  S    0.394413   0.130053  -0.773976
   17  H  2  S    0.067380  -0.011955  -0.136710
   18  H  2  X   -0.002893   0.014364  -0.034380
   19  H  2  Y   -0.041896  -0.028431   0.075287
   20  H  2  Z   -0.004075   0.008958  -0.016496
   21  H  3  S    0.563235   0.520319   0.380289
   22  H  3  S    0.113401   0.068795   0.097098
   23  H  3  X   -0.003275   0.034744   0.016275
   24  H  3  Y    0.057875   0.061550   0.024219
   25  H  3  Z   -0.005724   0.021435   0.004183
   26  H  4  S   -0.534621   0.666700  -0.165910
   27  H  4  S   -0.137022   0.098333  -0.024002
   28  H  4  X    0.027701  -0.077584   0.023408
   29  H  4  Y   -0.006731  -0.014818  -0.037615
   30  H  4  Z    0.017233   0.006200   0.000024

          ------------------------
          MCSCF OPTIMIZED ORBITALS
          ------------------------

                      1          2          3          4          5
                  -15.9854     0.0000     0.0000     0.0000     0.0000
                     A          A          A          A          A   
    1  N  1  S    1.001253  -0.003189   0.004959  -0.002402  -0.017127
    2  N  1  S   -0.001848   0.401769  -0.016213   0.001783  -0.197442
    3  N  1  S   -0.006336   0.295314  -0.067662   0.007715  -0.285264
    4  N  1  X    0.000008   0.010397   0.449904   0.017395  -0.027652
    5  N  1  Y    0.000048  -0.000306   0.002783   0.395662   0.008132
    6  N  1  Z    0.001140   0.052817   0.001254   0.001376   0.578970
    7  N  1  X    0.000057  -0.015541   0.256505   0.019536  -0.047413
    8  N  1  Y    0.000002   0.000041   0.013125   0.174978   0.009280
    9  N  1  Z   -0.000454   0.008920  -0.030413   0.005002   0.386686
   10  N  1 XX   -0.000171  -0.003546   0.017608   0.000972  -0.013373
   11  N  1 YY    0.000358   0.002694  -0.018216  -0.000564  -0.010850
   12  N  1 ZZ   -0.000187   0.000853   0.000608  -0.000408   0.024223
   13  N  1 XY   -0.000096  -0.001394  -0.001036  -0.000940  -0.000149
   14  N  1 XZ    0.000138   0.002048   0.027342   0.000317   0.002347
   15  N  1 YZ   -0.000012  -0.001172  -0.000845   0.027108  -0.000032
   16  H  2  S   -0.001991   0.208250  -0.201448   0.387750   0.121792
   17  H  2  S    0.000564   0.003701  -0.039364   0.051027   0.028207
   18  H  2  X   -0.000356   0.012931   0.014578   0.019528   0.005507
   19  H  2  Y    0.000977  -0.036986   0.021345  -0.035143  -0.016347
   20  H  2  Z    0.000399  -0.005302   0.006826  -0.012185   0.020017
   21  H  3  S   -0.001877   0.207978  -0.175638  -0.393514   0.123168
   22  H  3  S    0.000480   0.004368  -0.047322  -0.060506   0.029682
   23  H  3  X   -0.000268   0.009286   0.017741  -0.016242   0.005601
   24  H  3  Y   -0.000927   0.036469  -0.018289  -0.035798   0.017338
   25  H  3  Z    0.000420  -0.006717   0.006507   0.013959   0.020053
   26  H  4  S   -0.001965   0.217820   0.434167  -0.003570   0.124576
   27  H  4  S    0.000317   0.007181   0.087928   0.007952   0.024948
   28  H  4  X    0.000917  -0.036875  -0.030971   0.001326  -0.022353
   29  H  4  Y   -0.000072   0.003055   0.001725   0.026650  -0.000002
   30  H  4  Z    0.000499  -0.013551  -0.023896  -0.000220   0.018418

                      6          7          8          9         10
                    0.0000     0.0000     0.0000     0.1525     0.2020
                     A          A          A          A          A   
    1  N  1  S    0.244899  -0.030943   0.019708  -0.150359  -0.008709
    2  N  1  S    0.811984  -0.089884   0.049921  -0.230725  -0.020290
    3  N  1  S    0.168774   0.067233  -0.016789   1.493770   0.016416
    4  N  1  X    0.070533   0.879976   0.016367  -0.038505  -0.008941
    5  N  1  Y   -0.018995  -0.042905   0.989497   0.004853   0.130839
    6  N  1  Z    0.692297   0.075012   0.005568  -0.225748  -0.020953
    7  N  1  X    0.052794   0.035377  -0.011178   0.141993   0.211603
    8  N  1  Y   -0.010574  -0.018617   0.094062  -0.038403  -0.753917
    9  N  1  Z   -0.090568  -0.003406  -0.008999   0.511864   0.064973
   10  N  1 XX    0.031743  -0.031675  -0.006224  -0.025373   0.029688
   11  N  1 YY   -0.026816   0.036198   0.004074   0.071857  -0.038314
   12  N  1 ZZ   -0.004927  -0.004523   0.002150  -0.046484   0.008626
   13  N  1 XY    0.011053   0.007419  -0.036406  -0.018952   0.040230
   14  N  1 XZ   -0.033334  -0.025337   0.000975   0.047613   0.037072
   15  N  1 YZ    0.007843   0.005840  -0.051768  -0.010631  -0.101770
   16  H  2  S   -0.489798   0.351664  -0.582124   0.321833  -0.523819
   17  H  2  S   -0.056223   0.071167  -0.115929  -0.883175   1.870993
   18  H  2  X   -0.023559  -0.004543  -0.026357  -0.032026   0.026957
   19  H  2  Y    0.061739  -0.032079   0.051256   0.099397  -0.094263
   20  H  2  Z   -0.012505  -0.005665  -0.014418   0.003724  -0.076855
   21  H  3  S   -0.476916   0.323176   0.579720   0.325375   0.261399
   22  H  3  S   -0.058339   0.074729   0.126324  -0.935230  -1.029488
   23  H  3  X   -0.023815  -0.014062   0.024239   0.001625  -0.025616
   24  H  3  Y   -0.060594   0.031211   0.048635  -0.097594  -0.056963
   25  H  3  Z   -0.015845  -0.012605   0.011133   0.024800   0.070772
   26  H  4  S   -0.487422  -0.683128  -0.033003   0.174187   0.223765
   27  H  4  S   -0.056109  -0.153898  -0.013308  -0.697866  -0.803056
   28  H  4  X    0.067242   0.048439   0.002005   0.089220   0.034271
   29  H  4  Y    0.001927   0.000674  -0.038638  -0.032889   0.016479
   30  H  4  Z   -0.010450   0.011880   0.004943   0.057671   0.038213

                     11         12         13         14         15
                    0.2110     0.5382     0.6060     0.6377     0.7836
                     A          A          A          A          A   
    1  N  1  S    0.030736   0.061180   0.039680  -0.080379  -0.154737
    2  N  1  S    0.060150   0.069621   0.184620  -0.275696  -0.357971
    3  N  1  S   -0.201005  -0.446801   0.253114  -0.050571   0.612731
    4  N  1  X   -0.002248  -0.598104  -0.195166   0.121451  -0.001109
    5  N  1  Y    0.046084   0.001114  -0.337175  -0.334523   0.093312
    6  N  1  Z    0.050607   0.363895  -0.412944   0.425719   0.135270
    7  N  1  X   -0.396736   1.408219   0.681652  -0.638528   0.006525
    8  N  1  Y   -0.303674  -0.085579   1.262511   1.484085  -0.542676
    9  N  1  Z   -0.145427  -0.460456   0.728646  -0.773349  -0.062291
   10  N  1 XX   -0.072684   0.024373  -0.005801   0.001595   0.020673
   11  N  1 YY    0.078576  -0.008723  -0.034072   0.038993   0.011198
   12  N  1 ZZ   -0.005892  -0.015650   0.039872  -0.040588  -0.031872
   13  N  1 XY    0.026279  -0.009242   0.068196   0.027873   0.162577
   14  N  1 XZ   -0.074143   0.036620  -0.017308   0.031392   0.009436
   15  N  1 YZ   -0.037973  -0.001919  -0.003496  -0.035330   0.107644
   16  H  2  S    0.106531   0.410268  -0.683798  -0.282304   0.093709
   17  H  2  S   -0.214167   0.515718  -0.215169  -0.768725   0.027207
   18  H  2  X    0.036947   0.031351   0.095345   0.008097   0.261645
   19  H  2  Y   -0.003076  -0.054427   0.094159   0.186289  -0.048417
   20  H  2  Z   -0.014462  -0.068289   0.033556  -0.085747   0.233322
   21  H  3  S    0.493227   0.317158   0.220240   0.742302  -0.073445
   22  H  3  S   -1.609260   0.507684   0.722169   0.247468  -0.315391
   23  H  3  X   -0.008327   0.047343  -0.113387  -0.023665  -0.401009
   24  H  3  Y   -0.058687   0.036871   0.141698   0.123979  -0.152837
   25  H  3  Z    0.030305  -0.074367   0.020724   0.023631  -0.216644
   26  H  4  S   -0.567207  -0.185295  -0.553316   0.592006   0.050447
   27  H  4  S    1.974908  -0.872768  -0.387007   0.249914  -0.093579
   28  H  4  X   -0.088916   0.100822   0.038933  -0.056498   0.121895
   29  H  4  Y    0.013200  -0.044060   0.098429   0.000037   0.483643
   30  H  4  Z   -0.056980   0.067902   0.061386  -0.012223  -0.015472

                     16         17         18         19         20
                    0.9702     1.0063     1.2794     1.4465     1.4932
                     A          A          A          A          A   
    1  N  1  S   -0.544462  -0.207562  -0.013458  -0.499312  -0.239005
    2  N  1  S   -1.155833  -0.438442  -0.027345  -1.040605  -0.483767
    3  N  1  S    2.324361   1.067652   0.044362   1.870696   1.069300
    4  N  1  X   -0.067157  -0.046505  -0.019191  -0.023073   0.135682
    5  N  1  Y    0.021496  -0.023978  -0.242179   0.009434   0.014284
    6  N  1  Z    0.165553   0.069761  -0.007954  -0.036192   0.012477
    7  N  1  X    0.329562   0.375896  -0.043609  -0.195184   0.642775
    8  N  1  Y   -0.075240   0.140493   0.946547   0.199411  -0.257101
    9  N  1  Z   -0.027937   0.345088  -0.006788   0.780212   0.523555
   10  N  1 XX   -0.126663   0.185121   0.000570   0.128167  -0.045816
   11  N  1 YY   -0.087915  -0.081603   0.002293   0.119551   0.038435
   12  N  1 ZZ    0.214579  -0.103518  -0.002864  -0.247718   0.007381
   13  N  1 XY   -0.026006  -0.044163  -0.097026   0.015193  -0.034528
   14  N  1 XZ   -0.045691  -0.224291   0.019192   0.010208  -0.131723
   15  N  1 YZ   -0.002645  -0.050595   0.038354  -0.006794  -0.012213
   16  H  2  S   -0.271649  -0.170168  -0.442572  -0.604908  -0.145082
   17  H  2  S   -0.307735  -0.151919  -0.203287  -0.223006   0.071440
   18  H  2  X   -0.009968  -0.432209  -0.414437   0.452463  -0.460261
   19  H  2  Y   -0.006187  -0.021134  -0.356876   0.103268  -0.057131
   20  H  2  Z    0.299828   0.041119   0.347108  -0.245849  -0.652001
   21  H  3  S   -0.342313  -0.067778   0.437519  -0.450703  -0.362510
   22  H  3  S   -0.289390  -0.059158   0.161661  -0.102728   0.014250
   23  H  3  X    0.073570  -0.266784   0.449172   0.392465  -0.267820
   24  H  3  Y    0.019771   0.015295  -0.391482  -0.085087   0.069452
   25  H  3  Z    0.349410   0.160020  -0.357774  -0.405212  -0.407294
   26  H  4  S   -0.455108  -0.270968   0.002312  -0.461535  -0.443923
   27  H  4  S   -0.338065  -0.242212   0.015213  -0.145071  -0.353698
   28  H  4  X   -0.113994   0.402456  -0.048476   0.119920   0.061464
   29  H  4  Y   -0.063919  -0.087330   0.208855  -0.225934   0.152871
   30  H  4  Z    0.310424  -0.461763  -0.007657  -0.321243   0.550596

                     21         22         23         24         25
                    1.6211     1.8406     1.9014     1.9716     2.1721
                     A          A          A          A          A   
    1  N  1  S    0.086654  -0.087759   0.013743   0.155709  -0.104164
    2  N  1  S    0.174769  -0.150230   0.003954   0.431512  -0.204735
    3  N  1  S   -0.332372   0.747434  -0.279746   1.178044   0.409448
    4  N  1  X    0.151335  -0.337047  -0.018363   0.192546  -0.086720
    5  N  1  Y    0.052074   0.156056   0.594196   0.032668   0.072645
    6  N  1  Z    0.018179  -0.002612  -0.050497   0.326796  -0.008746
    7  N  1  X    0.068964   0.178020  -0.028932  -0.252778   0.024301
    8  N  1  Y    0.900388   0.151311   0.093773  -0.009648   0.023496
    9  N  1  Z   -0.142658   0.290776  -0.125417   0.454004   0.473833
   10  N  1 XX   -0.075486   0.253474  -0.001505  -0.050662  -0.769902
   11  N  1 YY   -0.005145  -0.166321   0.052915  -0.178490  -0.026664
   12  N  1 ZZ    0.080631  -0.087153  -0.051409   0.229152   0.796566
   13  N  1 XY    0.028952   0.047985   0.266400   0.064313  -0.305573
   14  N  1 XZ   -0.085890   0.069292   0.006125  -0.248760   0.417210
   15  N  1 YZ   -0.101347  -0.061503  -0.178900  -0.031833  -0.126896
   16  H  2  S   -0.241785  -0.153735   0.058395  -0.300887  -0.175416
   17  H  2  S   -0.105491  -0.416592  -0.261115  -0.280732  -0.116056
   18  H  2  X    0.050847  -0.281013  -0.369484   0.069148  -0.107505
   19  H  2  Y   -0.157765   0.639155   0.426393   0.786292   0.182014
   20  H  2  Z    0.486608   0.083079   0.396796  -0.034237  -0.160266
   21  H  3  S    0.350385  -0.098868   0.065369  -0.283547  -0.131576
   22  H  3  S    0.327093  -0.266038   0.433870  -0.222487  -0.006964
   23  H  3  X   -0.331226  -0.308524   0.459859   0.307422  -0.240876
   24  H  3  Y    0.151430  -0.451903   0.756924  -0.669493  -0.004573
   25  H  3  Z   -0.559602  -0.244265  -0.311187  -0.019327  -0.329661
   26  H  4  S    0.172649  -0.314548   0.069333  -0.216754  -0.155776
   27  H  4  S   -0.132962   0.372351  -0.035140  -0.206915   0.048155
   28  H  4  X    0.144118  -0.724670   0.036084   0.730537   0.194953
   29  H  4  Y   -0.783349  -0.210313   0.290820  -0.031107   0.113564
   30  H  4  Z    0.227079  -0.107801  -0.045635   0.292007  -0.654901

                     26         27         28         29
                    2.3282     2.5720     2.6872     3.0283
                     A          A          A          A   
    1  N  1  S   -0.050259  -0.079471   0.032255   0.005429
    2  N  1  S   -0.082332  -0.003383   0.058289   0.071697
    3  N  1  S    0.413509   2.332259  -0.062163   0.671129
    4  N  1  X    0.020316   0.255235  -0.029729  -0.503177
    5  N  1  Y   -0.105311   0.040394   0.568824   0.043889
    6  N  1  Z    0.035113   0.338930  -0.001377   0.050483
    7  N  1  X    0.207100   0.757314  -0.098353  -0.781489
    8  N  1  Y    0.177335  -0.032345   1.463999   0.078046
    9  N  1  Z    0.228578   0.615523  -0.047328  -0.016283
   10  N  1 XX   -0.229639   0.123700   0.042578  -1.021449
   11  N  1 YY    0.106447   0.524891  -0.034234   1.447164
   12  N  1 ZZ    0.123192  -0.648592  -0.008344  -0.425714
   13  N  1 XY    0.977952  -0.314455  -0.543135  -0.005232
   14  N  1 XZ    0.335237   0.900215  -0.074938  -0.696539
   15  N  1 YZ    0.464774  -0.100581   1.239760   0.010247
   16  H  2  S   -0.101897  -0.667256  -1.087488  -0.924952
   17  H  2  S    0.013280  -0.135080  -0.449936  -0.275162
   18  H  2  X   -0.499277  -0.310766  -0.171245  -0.251844
   19  H  2  Y   -0.179878   0.373813   0.810436   0.693628
   20  H  2  Z   -0.267281   0.382079   0.118265   0.410686
   21  H  3  S   -0.091662  -0.588057   1.078437  -0.843969
   22  H  3  S   -0.049230  -0.066284   0.439095  -0.259454
   23  H  3  X    0.146591  -0.330047   0.099759  -0.185753
   24  H  3  Y   -0.190876  -0.221471   0.798302  -0.711573
   25  H  3  Z    0.202127   0.296527  -0.186829   0.429515
   26  H  4  S   -0.198193  -1.291569   0.086427   1.012808
   27  H  4  S   -0.101312  -0.515860   0.009689   0.331140
   28  H  4  X    0.138483   0.828905  -0.017276  -0.775639
   29  H  4  Y   -0.532011  -0.032385  -0.188903   0.075105
   30  H  4  Z   -0.144955   0.528282   0.003367  -0.459000
 .....DONE WITH MCSCF ITERATIONS.....
 CPU     0: STEP CPU TIME=     8.62 TOTAL CPU TIME=          9.8 (      0.2 MIN)
 TOTAL WALL CLOCK TIME=          9.8 SECONDS, CPU UTILIZATION IS    99.80%

     ----------------------------------------------------------------
     PROPERTY VALUES FOR THE MCSCF SELF-CONSISTENT FIELD WAVEFUNCTION
     ----------------------------------------------------------------

          -----------------
          ENERGY COMPONENTS
          -----------------

         WAVEFUNCTION NORMALIZATION =       1.0000000000

                ONE ELECTRON ENERGY =     -94.5508402214
                TWO ELECTRON ENERGY =      27.2517630975
           NUCLEAR REPULSION ENERGY =      11.5488176537
                                      ------------------
                       TOTAL ENERGY =     -55.7502594701

 ELECTRON-ELECTRON POTENTIAL ENERGY =      27.2517630975
  NUCLEUS-ELECTRON POTENTIAL ENERGY =    -150.4019491029
   NUCLEUS-NUCLEUS POTENTIAL ENERGY =      11.5488176537
                                      ------------------
             TOTAL POTENTIAL ENERGY =    -111.6013683517
               TOTAL KINETIC ENERGY =      55.8511088815
                 VIRIAL RATIO (V/T) =       1.9981943168

          ---------------------------------------
          MULLIKEN AND LOWDIN POPULATION ANALYSES
          ---------------------------------------

     ATOMIC MULLIKEN POPULATION IN EACH MOLECULAR ORBITAL

                      1          2          3          4          5

                  2.000000   1.983650   1.656287   1.649905   1.645409

    1             2.000916   1.317203   1.541451   0.915234   1.073017
    2            -0.000311   0.195640   0.054797   0.402777   0.023990
    3            -0.000272   0.199529   0.026680   0.285888   0.162426
    4            -0.000333   0.271277   0.033360   0.046005   0.385976

                      6          7          8

                  0.026540   0.019488   0.018721

    1             0.012611   0.010524   0.010033
    2             0.002966   0.000143   0.006837
    3             0.006041   0.003468   0.001536
    4             0.004922   0.005354   0.000316
 WARNING! MCSCF POPULATIONS SHOWN ABOVE ARE FOR THE NATURAL ORBITALS.
 IGNORE THE ABOVE DATA FOR MCSCF FUNCTIONS WHICH ARE NOT OF -FORS- TYPE.
 THE FOLLOWING POPULATIONS ARE CORRECT FOR ANY MCSCF WAVEFUNCTION.

               ----- POPULATIONS IN EACH AO -----
                             MULLIKEN      LOWDIN
              1  N  1  S      2.00260     1.89708
              2  N  1  S      0.82553     0.57640
              3  N  1  S      0.64356     0.39621
              4  N  1  X      0.71636     0.65273
              5  N  1  Y      0.66206     0.57966
              6  N  1  Z      0.88239     0.82564
              7  N  1  X      0.35125     0.42436
              8  N  1  Y      0.25850     0.38073
              9  N  1  Z      0.52042     0.55767
             10  N  1 XX      0.00057     0.15601
             11  N  1 YY      0.00513     0.18702
             12  N  1 ZZ      0.00050     0.14240
             13  N  1 XY      0.00628     0.00291
             14  N  1 XZ      0.00586     0.01166
             15  N  1 YZ      0.00000     0.01149
             16  H  2  S      0.59756     0.46537
             17  H  2  S      0.03188     0.14389
             18  H  2  X      0.01101     0.02325
             19  H  2  Y      0.03374     0.05741
             20  H  2  Z      0.01265     0.03402
             21  H  3  S      0.59090     0.45923
             22  H  3  S      0.03769     0.14491
             23  H  3  X      0.01012     0.02334
             24  H  3  Y      0.03329     0.05529
             25  H  3  Z      0.01330     0.03394
             26  H  4  S      0.63933     0.49524
             27  H  4  S      0.04743     0.14265
             28  H  4  X      0.03133     0.05461
             29  H  4  Y      0.01055     0.02133
             30  H  4  Z      0.01824     0.04355

          ----- MULLIKEN ATOMIC OVERLAP POPULATIONS -----
          (OFF-DIAGONAL ELEMENTS NEED TO BE MULTIPLIED BY 2)

             1           2           3           4

    1    5.9691161
    2    0.3106776   0.3877587
    3    0.2988492  -0.0061073   0.3997821
    4    0.3023468  -0.0054901  -0.0072286   0.4572477

          TOTAL MULLIKEN AND LOWDIN ATOMIC POPULATIONS
       ATOM         MULL.POP.    CHARGE          LOW.POP.     CHARGE
    1 N             6.880990    0.119010         6.801954    0.198046
    2 H             0.686839    0.313161         0.723932    0.276068
    3 H             0.685295    0.314705         0.716721    0.283279
    4 H             0.746876    0.253124         0.757393    0.242607

          MULLIKEN SPHERICAL HARMONIC POPULATIONS
       ATOM           S       P       D      F      G      H      I    TOTAL
    1 N             3.47    3.39    0.02   0.00   0.00   0.00   0.00    6.88
    2 H             0.63    0.06    0.00   0.00   0.00   0.00   0.00    0.69
    3 H             0.63    0.06    0.00   0.00   0.00   0.00   0.00    0.69
    4 H             0.69    0.06    0.00   0.00   0.00   0.00   0.00    0.75

          ---------------------
          ELECTROSTATIC MOMENTS
          ---------------------

 POINT   1           X           Y           Z (BOHR)    CHARGE
                 0.000003   -0.000001   -0.177185        1.00 (A.U.)
         DX          DY          DZ         /D/  (DEBYE)
     0.428773   -0.112315    2.142362    2.187733
 ...... END OF PROPERTY EVALUATION ......
 CPU     0: STEP CPU TIME=     0.01 TOTAL CPU TIME=          9.8 (      0.2 MIN)
 TOTAL WALL CLOCK TIME=          9.8 SECONDS, CPU UTILIZATION IS    99.80%

     -------------------------------------------------
     GMC-PT/GMC-QDPT or general MCSCF input parameters
     -------------------------------------------------
 # of frozen core orbs. =         0 ->         0
 # of doubly occ. orbs. =         1
 # of active      orbs. =         7
 # of virtual     orbs. =        21
 # of active electrons  =         7
 # of states in CI      =         3
 Highest state in CI    =         3
 kstate =  1 1 1
 avecoe =  0.333 0.333 0.333
 State symmetry           = A           
 Assigned symmetry number = 1

 <<<Act. MO sym.: 1111111

 <<<Division of 1-ext.:  0
 <<<Division of 2-ext.:  0

     ------------------------
     Orbital canonicalization
     ------------------------

 MOs are canonicalized for core, virtual, and invariant-active orbital spaces.
 This is a part of the GMC-QDPT calculation.
 SCHWARZ INEQUALITY OVERHEAD:       465 INTEGRALS, T=        0.00
 DIRECT TRANSFORMATION SKIPS AO INTEGRAL STORAGE ON DISK.

 Averaged energy =     -55.750259470

 State #    1  Energy =     -55.891200952  S =  0.500
 State #    2  Energy =     -55.732021673  S =  0.500
 State #    3  Energy =     -55.627555785  S =  0.500

 Orbital energies for filled orbital space
  -15.985403
 Orbital energies for active orbital space
   -1.524435  -0.872772  -0.979904  -0.749589   0.394980
    0.247806   0.415392
 Orbital energies for external orbital space
    0.152485   0.202045   0.211001   0.538180   0.606011
    0.637668   0.783603   0.970166   1.006267   1.279368
    1.446463   1.493193   1.621053   1.840559   1.901394
    1.971592   2.172145   2.328222   2.572007   2.687206
    3.028321

 Zero values mean non-canonical orbitals.
 ... done with orbital canonicalization ...
 CPU     0: STEP CPU TIME=     0.58 TOTAL CPU TIME=         10.4 (      0.2 MIN)
 TOTAL WALL CLOCK TIME=         10.4 SECONDS, CPU UTILIZATION IS    99.90%

     --------------------------------------------
     PARTIAL TWO ELECTRON INTEGRAL TRANSFORMATION
     --------------------------------------------

 NUMBER OF CORE MOLECULAR ORBITALS     =    0
 NUMBER OF OCCUPIED MOLECULAR ORBITALS =    8
 TOTAL NUMBER OF MOLECULAR ORBITALS    =   29
 TOTAL NUMBER OF ATOMIC ORBITALS       =   30
 THRESHOLD FOR KEEPING TRANSFORMED 2E- INTEGRALS = 1.000E-09
 AO INTEGRALS WILL BE CALCULATED IN DIRECT MODE...
 DIRECT TRANSFORMATION SKIPS AO INTEGRAL STORAGE ON DISK.
 SCHWARZ INEQUALITY OVERHEAD:       465 INTEGRALS, T=        0.00

 PLAN A: REQUIREMENTS FOR FULLY IN-MEMORY TRANSFORMATION:
 # OF WORDS AVAILABLE =            100000000
 # OF WORDS NEEDED    =               221798

 PARALLEL ONLY WORKS WITH THE SEGMENTED ALGORITHM.
 ADJUSTING MEMORY TO USE SEGMENTED ALGORITHM.


 PLAN B: REQUIREMENTS FOR THE SEGMENTED TRANSFORMATION:
       MINIMUM=         124148 WORDS FOR 1 MOLECULAR ORBITAL PER PASS
       MAXIMUM=         221798 WORDS FOR ALL MOLECULAR ORBITALS IN 1 PASS
              (          13950 EXTRA WORDS INCLUDES 1 EXTRA ORBITAL/PASS)
 THIS RUN USES=         221798 WORDS,
 DISTRIBUTING   1 PASSES EACH CONTAINING     8 ORBITALS OVER   1 PROCESSORS.

 CHOOSING SEGMENTED PARTIAL TRANSFORMATION...
 DIRECT TRANSFORMATION SKIPS AO INTEGRAL STORAGE ON DISK.
 PASS #   1 TOOK        0.05 SECONDS.
 TOTAL NUMBER OF TRANSFORMED 2E- INTEGRALS KEPT =        29226
 ... END OF INTEGRAL TRANSFORMATION ...
 CPU     0: STEP CPU TIME=     0.05 TOTAL CPU TIME=         10.4 (      0.2 MIN)
 TOTAL WALL CLOCK TIME=         10.4 SECONDS, CPU UTILIZATION IS    99.90%

     --------     ------------------------------------------
     GMC-QDPT     Program written by H.Nakano (Kyushu Univ.)
     --------     ------------------------------------------

 *** Reference space

 Reference type: ORMAS (= Occupation restricted multiple active space)
 # of orbitals          =  7
 # of minimum electrons =  7
 # of maximum electrons =  7
 State symmetry    =    1 (input)
 2*Sz              =    1 (input)
 Spin multiplicity =    2 (input)
 Dimension of reference space =      1225  (from      3432 walks)

 Dimension of reference space =      1225  (from      1225 walks)

 <<<Ionized spaces for Ref-CI:
      0:         1225 /   -1-0:         1960 /  0-1-0:         2891

 ***                    ***
 *** Reference space CI ***
 ***                    ***

 Converged after   26 iterations

 Reference wavefunctions:

 State #    1  Energy =     -55.891200952  S =  0.500

      Det      Coef    Occupancy (Ignoring core)
      ---      ----    --------- --------- -----
        1   -0.977912  11110001110000
      393   -0.067750  10110101010010
      717   -0.061010  11010011100001

 State #    2  Energy =     -55.732021673  S =  0.500

      Det      Coef    Occupancy (Ignoring core)
      ---      ----    --------- --------- -----
       71    0.982424  11110001011000
      822   -0.061400  11010011001001

 State #    3  Energy =     -55.627555785  S =  0.500

      Det      Coef    Occupancy (Ignoring core)
      ---      ----    --------- --------- -----
       36   -0.980805  11110001101000
      463   -0.068320  10110101001010

 Davidson method: CPU/Wall time =           0.39 /           0.39 sec.

 Oscillator strength (invalid if E(1)/=E(GS)):
 -----------------------------------------
   State                        f
 -----------------------------------------
     2     F(REF-CI)=        0.0012571320
     3     F(REF-CI)=        0.0014219108
 -----------------------------------------

 Dipole moment matrix elements, x, y, z, in A.U.

 Dimension of ionized spaces for PT:
 (N-2) space:         1715 /  (N-1) space:         2842 /  N space:         2891
 (N+1) space:         2842 /  (N+2) space:         1715

 <<<Ionized spaces for internal:
         0:         1225 /      -1-0:         1960 /     0-1-0:         2891
  -1-0-1-0:         2842 / 0-1-0-1-0:         3381

 Diagonal elements of averaged one-particle density matrix:
       2       3       4       5       6       7       8
  0.9940  0.9871  0.9886  0.9928  0.0109  0.0156  0.0111
  0.9896  0.6584  0.6611  0.6632  0.0088  0.0110  0.0079

 Orbital energies:
 -------- Doubly-occupied orbitals (highest several orbs.) -------
             1
 -1.598540D+01
 -------- Active orbitals ----------------------------------------
             2            3            4            5            6
 -1.524435D+00-8.727721D-01-9.799037D-01-7.495888D-01 3.949799D-01
             7            8
  2.478060D-01 4.153919D-01
 -------- External orbitals (lowest several orbs.) ---------------
             9           10           11           12           13
  1.524853D-01 2.020450D-01 2.110007D-01 5.381798D-01 6.060113D-01
            14           15           16           17           18
  6.376679D-01 7.836031D-01 9.701661D-01 1.006267D+00 1.279368D+00

 *** Quasi-degeneracy checking

 === Det (|Ci| > 1.0D-01 and dE < 5.0D-03)

 # of small denominators (single excitations)
 State       dEmin  dE < 5.0D-03  dE < 5.0D-04  dE < 5.0D-05  dE < 5.0D-06
 ----- ----------- ------------- ------------- ------------- -------------
     1    5.00D-03             0             0             0             0
     2    5.00D-03             0             0             0             0
     3    5.00D-03             0             0             0             0

 # of small denominators (double excitations)
 State       dEmin  dE < 5.0D-03  dE < 5.0D-04  dE < 5.0D-05  dE < 5.0D-06
 ----- ----------- ------------- ------------- ------------- -------------
     1    5.00D-03             0             0             0             0
     2    5.00D-03             0             0             0             0
     3    5.00D-03             0             0             0             0

 *** Zeroth-Order Setup (Granovsky's zeroth-order vectors)
 Zeroth-order effective Hamiltonian
  (= Sum_i e(i)*<I|a+(i)a(i)|J> ):
                   1            2            3
     1 -7.401612D+00
     2 -9.641108D-03-7.299326D+00
     3  1.270431D-03-1.542960D-03-7.185892D+00

 Zeroth-order vectors:
 State #    1
       MC st            1           2           3
       Coeff    9.957D-01   9.295D-02  -5.177D-03
 State #    2
       MC st            2           1           3
       Coeff   -9.956D-01   9.286D-02  -1.470D-02
 State #    3
       MC st            3           2           1
       Coeff    9.999D-01  -1.415D-02   6.520D-03

 *** GMC-QDPT computation

 (Integral reading:  CPU/Wall time =           0.01 /           0.00 sec.)

 One-external:
   0 -ionized terms: CPU/Wall time =           0.03 /           0.03 sec.
 (-1)-ionized terms: CPU/Wall time =           0.08 /           0.09 sec.
 (+1)-ionized terms: CPU/Wall time =           0.03 /           0.02 sec.
 (+1)-ionized terms: CPU/Wall time =           0.00 /           0.01 sec.
 (+2)-ionized terms: CPU/Wall time =           0.00 /           0.00 sec.

 Internal:
 # of macro loops for internal contribution =         1 (input)
 Loop:    1
 Dimension of internal CISD space     =         0  (after screening)
 Space construction: CPU/Wall time =           0.02 /           0.02 sec.
 Internal terms:     CPU/Wall time =           0.00 /           0.00 sec.

 Two-external:
   0 -ionized terms: CPU/Wall time =           0.06 /           0.06 sec.
 (-1)-ionized terms: CPU/Wall time =           0.99 /           0.99 sec.
 (-2)-ionized terms: CPU/Wall time =           0.17 /           0.17 sec.

 Total time:         CPU/Wall time =           1.38 /           1.39 sec.

 ***                  ***
 *** GMC-QDPT Results ***
 ***                  ***

 Diagonal elements of effective Hamiltonian:
 Heff(  1) =   -55.98786523
 Heff(  2) =   -55.84186385
 Heff(  3) =   -55.73854436

 Off-diagonal elements of effective Hamiltonian:
                   1            2
     2 -1.308356D-02
     3 -1.341625D-03-1.505915D-03

 ******** GMC-QDPT energies ********
 ----------------------------------------------------------------------------
   State                        1st order                           2nd order
 ----------------------------------------------------------------------------
     1     E(REF-CI)=      -55.8912009516   E(GMC-QDPT2)=      -55.9890370422
     2     E(REF-CI)=      -55.7320216734   E(GMC-QDPT2)=      -55.8407193337
     3     E(REF-CI)=      -55.6275557855   E(GMC-QDPT2)=      -55.7385170654
 ----------------------------------------------------------------------------

 Excitation energies (invalid if E(1)/=E(GS)):
 ----------------------------------------------------------------------------
   State                        1st order                           2nd order
 ----------------------------------------------------------------------------

     TZ Sorted GMC-PT ENERGIES:
         1      -55.9890370422
         2      -55.8407193337
         3      -55.7385170654
     2     E(REF-CI)=        4.3314910 eV   E(GMC-QDPT2)=        4.0359325 eV
     3     E(REF-CI)=        7.1741541 eV   E(GMC-QDPT2)=        6.8169993 eV
 ----------------------------------------------------------------------------

 Main characters of perturbed GMC-QDPT states:

 State #    1  Energy =     -55.989037042  S =  0.500

      Det      Coef    Occupancy (Ignoring core)
      ---      ----    --------- --------- -----
        1    0.978096  11110001110000
      393    0.067709  10110101010010
      717    0.061007  11010011100001

 State #    2  Energy =     -55.840719334  S =  0.500

      Det      Coef    Occupancy (Ignoring core)
      ---      ----    --------- --------- -----
       71    0.982602  11110001011000
      822   -0.061409  11010011001001

 State #    3  Energy =     -55.738517065  S =  0.500

      Det      Coef    Occupancy (Ignoring core)
      ---      ----    --------- --------- -----
       36   -0.980812  11110001101000
      463   -0.068322  10110101001010

 <<<Max |V/de| = 2.274D-02  Thresh = 1.000D+00

 Oscillator strength (invalid if E(1)/=E(GS)):
 ----------------------------------------------------------------------------
   State                        1st order                           2nd order
 ----------------------------------------------------------------------------
     2     F(REF-CI)=        0.0012571320     F(GMC-PT2)=        0.0012157221
     3     F(REF-CI)=        0.0014219108     F(GMC-PT2)=        0.0013866525
 ----------------------------------------------------------------------------

 Dipole moment matrix elements, x, y, z, in A.U.
States    1    1        0.2037459509       -0.0578441615        0.7440688976
States    1    2        0.0272337185       -0.0035377452        0.1074286896
States    1    3        0.0096989829       -0.0860107547       -0.0284732480
States    2    1        0.0272337185       -0.0035377452        0.1074286896
States    2    2        0.1200693687        0.0527003153        0.2746523955
States    2    3        0.0554507952        0.2500343988        0.0013575605
States    3    1        0.0096989829       -0.0860107547       -0.0284732480
States    3    2        0.0554507952        0.2500343988        0.0013575605
States    3    3        0.4266325127       -0.1764336374        0.2648833824

 Oscillator strength (valid only when positive): 
 ----------------------------------------------------------------------------
  States                        1st order                           2nd order
 ----------------------------------------------------------------------------
  1  1     F(REF-CI)=        0.0000000000     F(GMC-PT2)=        0.0000000000
  1  2     F(REF-CI)=       -0.0012571320     F(GMC-PT2)=       -0.0012157221
  1  3     F(REF-CI)=       -0.0014219108     F(GMC-PT2)=       -0.0013866525
  2  1     F(REF-CI)=        0.0012571320     F(GMC-PT2)=        0.0012157221
  2  2     F(REF-CI)=        0.0000000000     F(GMC-PT2)=        0.0000000000
  2  3     F(REF-CI)=       -0.0045844523     F(GMC-PT2)=       -0.0044692258
  3  1     F(REF-CI)=        0.0014219108     F(GMC-PT2)=        0.0013866525
  3  2     F(REF-CI)=        0.0045844523     F(GMC-PT2)=        0.0044692258
  3  3     F(REF-CI)=        0.0000000000     F(GMC-PT2)=        0.0000000000
 CPU     0: STEP CPU TIME=     1.84 TOTAL CPU TIME=         12.2 (      0.2 MIN)
 TOTAL WALL CLOCK TIME=         12.2 SECONDS, CPU UTILIZATION IS    99.92%

     !!! DIABATIZATION FOR REF CI STATES !!!

 *******************************************************
          $DMO GROUP FOUND IN THE INPUT.
        DIABATIZATION OF ADIABATIC STATES BEGINS.
     PROGRAMMED BY TAO ZENG (CARLETON UNIVERSITY).
               Email: toby.zeng@carleton.ca
     See T. Zeng, J. Chem. Phys. 2017, 146, 144103
 *******************************************************

 *************************************************************************
     STEP 1: TRANSFORMATION OF ADIABATIC STATES TO THE DMO REPRESENTATION
         See Atchity and Ruedenberg, J. Chem. Phys. 1999, 111, 2910
 *************************************************************************

Read in Diabatic Molecualr Orbitals:

                      1          2          3          4          5

    1  N  1  S    0.008609   0.000000   0.000000  -0.013219   0.279491
    2  N  1  S    0.442914  -0.000000   0.000000  -0.184329   0.867803
    3  N  1  S    0.276913   0.000000  -0.000000  -0.288315   0.144236
    4  N  1  X   -0.000000   0.493155  -0.024636  -0.000000  -0.000000
    5  N  1  Y    0.000000   0.024636   0.493155  -0.000000   0.000000
    6  N  1  Z    0.090197   0.000000   0.000000   0.593421   0.705309
    7  N  1  X   -0.000000   0.210628  -0.010522   0.000000   0.000000
    8  N  1  Y    0.000000   0.010522   0.210628  -0.000000  -0.000000
    9  N  1  Z   -0.004381   0.000000   0.000000   0.381592  -0.106092
   10  N  1 XX   -0.000457   0.010719  -0.000535  -0.012387   0.006153
   11  N  1 YY   -0.000457  -0.010719   0.000535  -0.012387   0.006153
   12  N  1 ZZ    0.000914  -0.000000   0.000000   0.024773  -0.012306
   13  N  1 XY    0.000000  -0.000618  -0.012377  -0.000000   0.000000
   14  N  1 XZ   -0.000000   0.026529  -0.001325  -0.000000   0.000000
   15  N  1 YZ    0.000000   0.001325   0.026529  -0.000000   0.000000
   16  H  2  S    0.194462  -0.176074   0.343485   0.112865  -0.523343
   17  H  2  S    0.003574  -0.023812   0.046452   0.024014  -0.054445
   18  H  2  X    0.018760   0.009101   0.022834   0.009336  -0.039151
   19  H  2  Y   -0.032493   0.022287  -0.020044  -0.016171   0.067811
   20  H  2  Z   -0.009251   0.008464  -0.016511   0.018769  -0.010566
   21  H  3  S    0.194462  -0.209430  -0.324227   0.112865  -0.523343
   22  H  3  S    0.003574  -0.028322  -0.043847   0.024014  -0.054445
   23  H  3  X    0.018760   0.006781  -0.023627   0.009336  -0.039151
   24  H  3  Y    0.032493  -0.024174  -0.017723   0.016171  -0.067811
   25  H  3  Z   -0.009251   0.010067   0.015585   0.018769  -0.010566
   26  H  4  S    0.194462   0.385503  -0.019258   0.112865  -0.523343
   27  H  4  S    0.003574   0.052134  -0.002604   0.024014  -0.054445
   28  H  4  X   -0.037519  -0.032295   0.001613  -0.018672   0.078302
   29  H  4  Y    0.000000   0.001067   0.021353  -0.000000   0.000000
   30  H  4  Z   -0.009251  -0.018530   0.000926   0.018769  -0.010566

                      6          7

    1  N  1  S    0.000000  -0.000000
    2  N  1  S    0.000000  -0.000000
    3  N  1  S   -0.000000   0.000000
    4  N  1  X   -0.930415  -0.002083
    5  N  1  Y   -0.002083   0.930415
    6  N  1  Z   -0.000000   0.000000
    7  N  1  X   -0.046866  -0.000105
    8  N  1  Y   -0.000105   0.046866
    9  N  1  Z   -0.000000   0.000000
   10  N  1 XX    0.001538   0.000003
   11  N  1 YY   -0.001538  -0.000003
   12  N  1 ZZ   -0.000000   0.000000
   13  N  1 XY   -0.000004   0.001776
   14  N  1 XZ    0.039985   0.000090
   15  N  1 YZ    0.000090  -0.039985
   16  H  2  S   -0.362630  -0.631354
   17  H  2  S   -0.065964  -0.114846
   18  H  2  X    0.002763  -0.037520
   19  H  2  Y    0.037435   0.040736
   20  H  2  Z    0.001882   0.003276
   21  H  3  S   -0.365454   0.629724
   22  H  3  S   -0.066477   0.114549
   23  H  3  X    0.002595   0.037532
   24  H  3  Y   -0.037617   0.040567
   25  H  3  Z    0.001896  -0.003268
   26  H  4  S    0.728084   0.001630
   27  H  4  S    0.132441   0.000297
   28  H  4  X   -0.062317  -0.000140
   29  H  4  Y    0.000055  -0.024345
   30  H  4  Z   -0.003778  -0.000008

NUMBER OF SUB ACTIVE SPACES:   1
ROTATE ACTIVE MOS TO DMOS IN EACH SUB-SPACE

SPACE  1:

OVERLAP BETWEEN ORTHONORMAL AND PRE-ORTHONORMAL REF. DMOS

             1           2           3           4           5

    1    0.9911231   0.0219906  -0.0035907  -0.0030165   0.0015892
    2    0.0219906   0.9426118  -0.0097098   0.0276711  -0.0464662
    3   -0.0035907  -0.0097098   1.0294309  -0.0070678   0.0165027
    4   -0.0030165   0.0276711  -0.0070678   0.9979979  -0.0042500
    5    0.0015892  -0.0464662   0.0165027  -0.0042500   1.0502623
    6   -0.0026672  -0.0390674  -0.0122080   0.0282979   0.0196486
    7   -0.0012097   0.0093690  -0.0313173   0.0090045  -0.0125790

             6           7

    1   -0.0026672  -0.0012097
    2   -0.0390674   0.0093690
    3   -0.0122080  -0.0313173
    4    0.0282979   0.0090045
    5    0.0196486  -0.0125790
    6    1.0422478  -0.0033498
    7   -0.0033498   1.0022869
REFERENCE DMOS AFTER ORTHONORMALIZATION:

                      1          2          3          4          5

    1  N  1  S    0.007908   0.013082  -0.004164  -0.012387   0.266815
    2  N  1  S    0.444173   0.035117  -0.012357  -0.180767   0.826914
    3  N  1  S    0.278113   0.008861  -0.002895  -0.287958   0.136121
    4  N  1  X   -0.013347   0.488539  -0.030604   0.011287   0.038425
    5  N  1  Y    0.002488   0.022628   0.507987  -0.005747   0.004151
    6  N  1  Z    0.091373   0.012316  -0.006531   0.598153   0.675048
    7  N  1  X   -0.005107   0.222653  -0.008855  -0.005141   0.010636
    8  N  1  Y    0.000543   0.012754   0.206415   0.000537  -0.002098
    9  N  1  Z   -0.002747  -0.016400   0.003825   0.382703  -0.100130
   10  N  1 XX   -0.000776   0.012159  -0.000570  -0.012790   0.006316
   11  N  1 YY   -0.000269  -0.010816   0.000237  -0.012043   0.005362
   12  N  1 ZZ    0.001045  -0.001343   0.000332   0.024833  -0.011678
   13  N  1 XY   -0.000025  -0.000789  -0.011993  -0.000070   0.000173
   14  N  1 XZ   -0.000566   0.029876  -0.000563  -0.001952   0.000584
   15  N  1 YZ    0.000000   0.002011   0.024618   0.000459  -0.000771
   16  H  2  S    0.201901  -0.225747   0.318224   0.135550  -0.514032
   17  H  2  S    0.004281  -0.029923   0.041679   0.027816  -0.053881
   18  H  2  X    0.018887   0.007821   0.021897   0.009425  -0.037780
   19  H  2  Y   -0.033512   0.029111  -0.018825  -0.018356   0.065941
   20  H  2  Z   -0.009492   0.008081  -0.015627   0.018337  -0.009370
   21  H  3  S    0.202271  -0.278600  -0.293718   0.121814  -0.491812
   22  H  3  S    0.004418  -0.037589  -0.039306   0.025456  -0.050226
   23  H  3  X    0.018894   0.004256  -0.021065   0.008577  -0.036374
   24  H  3  Y    0.033548  -0.032188  -0.015487   0.017494  -0.064574
   25  H  3  Z   -0.009429   0.010145   0.015415   0.018535  -0.009841
   26  H  4  S    0.190133   0.407843   0.002630   0.079873  -0.493833
   27  H  4  S    0.002819   0.057537   0.000498   0.018587  -0.051664
   28  H  4  X   -0.037485  -0.031847  -0.000871  -0.015879   0.074324
   29  H  4  Y    0.000012   0.001549   0.020051   0.000303  -0.000534
   30  H  4  Z   -0.008807  -0.020743   0.000920   0.019451  -0.010814

                      6          7

    1  N  1  S   -0.004222   0.003203
    2  N  1  S   -0.008335   0.011796
    3  N  1  S    0.006276   0.004479
    4  N  1  X   -0.875844  -0.010164
    5  N  1  Y    0.007918   0.944086
    6  N  1  Z   -0.028339   0.002795
    7  N  1  X   -0.036806  -0.002412
    8  N  1  Y    0.002992   0.053069
    9  N  1  Z   -0.009094  -0.004456
   10  N  1 XX    0.002151   0.000072
   11  N  1 YY   -0.001652   0.000275
   12  N  1 ZZ   -0.000499  -0.000347
   13  N  1 XY   -0.000171   0.001407
   14  N  1 XZ    0.039518  -0.000051
   15  N  1 YZ    0.000326  -0.039157
   16  H  2  S   -0.348152  -0.626449
   17  H  2  S   -0.064019  -0.114136
   18  H  2  X    0.003586  -0.037347
   19  H  2  Y    0.036089   0.040855
   20  H  2  Z    0.001588   0.002416
   21  H  3  S   -0.356070   0.613501
   22  H  3  S   -0.065024   0.112340
   23  H  3  X    0.003021   0.036247
   24  H  3  Y   -0.036525   0.039243
   25  H  3  Z    0.002028  -0.003168
   26  H  4  S    0.721496  -0.006378
   27  H  4  S    0.129710  -0.000605
   28  H  4  X   -0.062058   0.000954
   29  H  4  Y    0.000271  -0.023686
   30  H  4  Z   -0.004739  -0.000123

 -------------------------------------------
       MAXIMIZING MORMO OVERLAP TERM        
 -------------------------------------------
   SWEEP    VALUE       PROGRESS
     0     6.29489
     1     6.98221     0.68731508
     2     6.98335     0.00114428
     3     6.98335     0.00000003
     4     6.98335     0.00000000
     5     6.98335     0.00000000
     6     6.98335     0.00000000
 THE ROTATION IS DONE
ACTIVE ORBITALS AFTER MORMO:

                      1          2          3          4          5

    1  N  1  S    0.007415   0.019102  -0.005049  -0.012394   0.245324
    2  N  1  S    0.435910   0.045067  -0.009737  -0.185278   0.799514
    3  N  1  S    0.301028  -0.040338   0.001407  -0.282165   0.163378
    4  N  1  X   -0.002947   0.465761  -0.032100   0.024958   0.023020
    5  N  1  Y    0.002707   0.018903   0.505781  -0.005674   0.005882
    6  N  1  Z    0.087048   0.025443  -0.009456   0.597679   0.673075
    7  N  1  X   -0.019871   0.261458  -0.000781  -0.036461   0.038353
    8  N  1  Y    0.000145   0.022925   0.183958   0.006925  -0.006760
    9  N  1  Z    0.008907  -0.047567   0.011291   0.382686  -0.097281
   10  N  1 XX   -0.002501   0.019448  -0.000925  -0.013280   0.031701
   11  N  1 YY    0.001644  -0.018888   0.000703  -0.010579  -0.026333
   12  N  1 ZZ    0.000858  -0.000559   0.000222   0.023859  -0.005368
   13  N  1 XY   -0.001035  -0.000047  -0.005402   0.000785   0.010274
   14  N  1 XZ    0.000143   0.024885  -0.000039   0.001266  -0.034343
   15  N  1 YZ   -0.000918   0.001971   0.020737   0.000792   0.007218
   16  H  2  S    0.189674  -0.192727   0.333607   0.120631  -0.501646
   17  H  2  S    0.001785  -0.037882   0.039707   0.029482  -0.057584
   18  H  2  X    0.011604   0.014709   0.016018   0.005248  -0.025128
   19  H  2  Y   -0.034646   0.021362  -0.030950  -0.015554   0.063470
   20  H  2  Z   -0.005864   0.004521  -0.013562   0.019885  -0.013373
   21  H  3  S    0.190667  -0.229964  -0.309773   0.113672  -0.479664
   22  H  3  S    0.002894  -0.055616  -0.042794   0.028863  -0.056529
   23  H  3  X    0.007985   0.014762  -0.013642   0.004709  -0.024769
   24  H  3  Y    0.034209  -0.024001  -0.028184   0.015941  -0.061684
   25  H  3  Z   -0.007239   0.005429   0.015504   0.019179  -0.015596
   26  H  4  S    0.191521   0.394786  -0.008925   0.095379  -0.508006
   27  H  4  S    0.003850   0.082131   0.005627   0.019760  -0.058392
   28  H  4  X   -0.033672  -0.026191   0.000938  -0.019285   0.069858
   29  H  4  Y    0.003054   0.004053   0.021837   0.000373   0.001342
   30  H  4  Z   -0.013336  -0.025177   0.002045   0.017958  -0.008991

                      6          7

    1  N  1  S    0.024351   0.016718
    2  N  1  S    0.059756   0.035937
    3  N  1  S   -0.084996  -0.027000
    4  N  1  X   -0.874090  -0.005600
    5  N  1  Y    0.002620   0.938976
    6  N  1  Z   -0.066054  -0.002074
    7  N  1  X   -0.033943  -0.011029
    8  N  1  Y    0.012891   0.074535
    9  N  1  Z    0.021189  -0.004420
   10  N  1 XX    0.030877  -0.005658
   11  N  1 YY   -0.036453   0.002995
   12  N  1 ZZ    0.005576   0.002663
   13  N  1 XY   -0.006412  -0.036455
   14  N  1 XZ    0.026524   0.002762
   15  N  1 YZ   -0.004779  -0.054793
   16  H  2  S   -0.327594  -0.627406
   17  H  2  S   -0.066384  -0.122560
   18  H  2  X    0.005971  -0.027561
   19  H  2  Y    0.029500   0.055123
   20  H  2  Z    0.007628  -0.012207
   21  H  3  S   -0.323204   0.615985
   22  H  3  S   -0.076015   0.130408
   23  H  3  X    0.014531   0.027093
   24  H  3  Y   -0.030575   0.052185
   25  H  3  Z    0.013265   0.010443
   26  H  4  S    0.704984   0.005186
   27  H  4  S    0.157612  -0.006681
   28  H  4  X   -0.051161  -0.001468
   29  H  4  Y    0.000093  -0.041412
   30  H  4  Z   -0.011360   0.004518

Actually Used Diabatic Molecualr Orbitals:

                      1          2          3          4          5

    1  N  1  S    0.007415   0.019102  -0.005049  -0.012394   0.245324
    2  N  1  S    0.435910   0.045067  -0.009737  -0.185278   0.799514
    3  N  1  S    0.301028  -0.040338   0.001407  -0.282165   0.163378
    4  N  1  X   -0.002947   0.465761  -0.032100   0.024958   0.023020
    5  N  1  Y    0.002707   0.018903   0.505781  -0.005674   0.005882
    6  N  1  Z    0.087048   0.025443  -0.009456   0.597679   0.673075
    7  N  1  X   -0.019871   0.261458  -0.000781  -0.036461   0.038353
    8  N  1  Y    0.000145   0.022925   0.183958   0.006925  -0.006760
    9  N  1  Z    0.008907  -0.047567   0.011291   0.382686  -0.097281
   10  N  1 XX   -0.002501   0.019448  -0.000925  -0.013280   0.031701
   11  N  1 YY    0.001644  -0.018888   0.000703  -0.010579  -0.026333
   12  N  1 ZZ    0.000858  -0.000559   0.000222   0.023859  -0.005368
   13  N  1 XY   -0.001035  -0.000047  -0.005402   0.000785   0.010274
   14  N  1 XZ    0.000143   0.024885  -0.000039   0.001266  -0.034343
   15  N  1 YZ   -0.000918   0.001971   0.020737   0.000792   0.007218
   16  H  2  S    0.189674  -0.192727   0.333607   0.120631  -0.501646
   17  H  2  S    0.001785  -0.037882   0.039707   0.029482  -0.057584
   18  H  2  X    0.011604   0.014709   0.016018   0.005248  -0.025128
   19  H  2  Y   -0.034646   0.021362  -0.030950  -0.015554   0.063470
   20  H  2  Z   -0.005864   0.004521  -0.013562   0.019885  -0.013373
   21  H  3  S    0.190667  -0.229964  -0.309773   0.113672  -0.479664
   22  H  3  S    0.002894  -0.055616  -0.042794   0.028863  -0.056529
[...]
      811   -0.021664    0.021664  2++-0+-
      323   -0.021347    0.021347  +022-+0
      332   -0.021345    0.021345  ++-2-0+
      534    0.021186    0.021186  0+22020
      107   -0.020523    0.020523  +22-+00
       79   -0.020508   -0.020508  -+220+0
      180   -0.020062    0.020062  -+2+200

 State #    3  Energy =     -55.742172963

      Det      Coef        Coefp    Occupancy (Ignoring core)
      ---      ----        ----    --------- --------- -----
       36   -0.961577   -0.961577  22+2000
       71   -0.194034    0.194034  2+22000
      463    0.066584   -0.066584  20+2020
      121   -0.042400    0.042400  +22-00+
      249    0.041708   -0.041708  20+2200
      112   -0.040353   -0.040353  +2-20+0
      472   -0.033881   -0.033881  2+020-+
      253    0.033235    0.033235  20+2-+0
      285    0.030678   -0.030678  02+2200
      459   -0.029037    0.029037  20+2+-0
       86    0.027580    0.027580  2+2-00+
        7    0.026919    0.026919  22-+0+0
       41   -0.025954    0.025954  22+-0+0
      716    0.025574    0.025574  22+0002
      771    0.024306    0.024306  +22+00-
       77    0.024271   -0.024271  2+-20+0
      356    0.024269    0.024269  22+0020
      250    0.023611    0.023611  -++2200
      142    0.022939    0.022939  22+0200
      460   -0.022523   -0.022523  -++2+-0
      284   -0.021833    0.021833  +-+2200
      297    0.021791   -0.021791  +202-0+
      288   -0.021730   -0.021730  +-+2-+0
      499    0.021384   -0.021384  02+2020
      367    0.021245   -0.021245  220+0-+
      491    0.021029   -0.021029  +2+20-0
       52    0.020961   -0.020961  220200+
      498    0.020208   -0.020208  +-+2020

 ---------------------------------------
    -DIABATIC STATES IN PROTOTYPES-     
 ---------------------------------------

     STATE:    1
 Group Ref#    Coefficients
     1    1    0.984123
     2    2    0.002456
     3    3    0.000571

WEIGHT OF LISTED PROTOTYPES:   96.85%

     STATE:    2
 Group Ref#    Coefficients
     1    1    0.002456
     2    2    0.984369
     3    3    0.000473

WEIGHT OF LISTED PROTOTYPES:   96.90%

     STATE:    3
 Group Ref#    Coefficients
     1    1    0.000571
     2    2    0.000473
     3    3    0.980304

WEIGHT OF LISTED PROTOTYPES:   96.10%

 --------------------------------------------------
 IN DIRECT MAX. DIABATIZATION FOR GMC-QDPT

 DIRECT MAXIMIZATION (DM) WITHOUT TRUNCATING ADIABATS
 EXPANSIONS INTO THE REFERENCE CONFIGURATION SPACE
 --------------------------------------------------

 -------------------------------------------
 - DM DIABT PT HAMILTONIAN MATRIX ELEMENTS -
 -------------------------------------------
                                            
 --- DIABATIC ENERGIES (DIAGONAL ELEMENT) ---       HARTREE            EV
 STATE #  1'S GMC-PT-LEVEL DIABATIC ENERGY=     -55.982246521       0.000000000
 STATE #  2'S GMC-PT-LEVEL DIABATIC ENERGY=     -55.843853939       3.765853976
 STATE #  3'S GMC-PT-LEVEL DIABATIC ENERGY=     -55.742172981       6.532733783

 --- DIABATIC COUPLINGS (OFF DIAGONAL ELEMENTS)---  HATREE            EV
 STATE #  1 &  2'S GMC-PT-LEVEL COUPLING  =      -0.031261709      -0.850674431
 STATE #  1 &  3'S GMC-PT-LEVEL COUPLING  =       0.007599632       0.206796532
 STATE #  2 &  3'S GMC-PT-LEVEL COUPLING  =      -0.017637946      -0.479952958

 ---------------------------------------
     - ROTATION TO DIABATIC STATES -    
 ---------------------------------------
 ROWS=ADIABATIC, COLUMNS=DIABATIC STATES

             1           2           3

    1   -0.9778589  -0.2087130   0.0151909
    2   -0.2022411   0.9611934   0.1876319
    3    0.0537627  -0.1804053   0.9821219

 ---------------------------------------
          - DIABATIC STATES -           
 ---------------------------------------

 State #    1  Energy =     -55.982246521

      Det      Coef        Coefp    Occupancy (Ignoring core)
      ---      ----        ----    --------- --------- -----
        1    0.966169   -0.966169  222+000
        8   -0.102978    0.102978  2-2+0+0
      393   -0.076215   -0.076215  202+020
      386    0.072626   -0.072626  2+2+0-0
        4   -0.070506    0.070506  2-2++00
      176    0.068014   -0.068014  2+2+-00
      717   -0.064689   -0.064689  220+002
        6    0.049344   -0.049344  22200+0
      708    0.040954   -0.040954  2-++0+-
      402    0.038615   -0.038615  2+-+0-+
      215   -0.035329   -0.035329  022+200
      218    0.033423   -0.033423  +-2+-+0
      390    0.033210   -0.033210  -+2++-0
      705   -0.032941   -0.032941  -2+++0-
      227   -0.032907   -0.032907  +2-+-0+
       76    0.030352    0.030352  2+2-0+0
      212    0.028627    0.028627  +220200
      113   -0.028333    0.028333  +-220+0
        2    0.027225   -0.027225  2220+00
       51   -0.026390    0.026390  22+-00+
      143   -0.025944   -0.025944  220+200
      424   -0.024838   -0.024838  +-2++-0
      184   -0.023395   -0.023395  -+2+-+0
      387   -0.023183    0.023183  2+20+-0
      122    0.023142    0.023142  +2-200+
      702    0.022003    0.022003  22+0+0-
      742   -0.020987   -0.020987  2+-+0+-
      773    0.020945   -0.020945  +2-++0-
      159    0.020662   -0.020662  -2++-0+
      368   -0.020418   -0.020418  2-++0-+
     1051   -0.020274   -0.020274  2+++0--

 State #    2  Energy =     -55.843853939

      Det      Coef        Coefp    Occupancy (Ignoring core)
      ---      ----        ----    --------- --------- -----
       71   -0.968399    0.968399  2+22000
       74    0.097609   -0.097609  2022+00
       76    0.079330    0.079330  2+2-0+0
      386   -0.067639    0.067639  2+2+0-0
      822    0.062712   -0.062712  2+02002
      106    0.053530    0.053530  +222000
       78    0.047653   -0.047653  20220+0
       36    0.046701    0.046701  22+2000
      813    0.043541   -0.043541  20+20+-
      323   -0.036320    0.036320  +022-+0
      113    0.035148   -0.035148  +-220+0
      320    0.034484    0.034484  0+22200
      810   -0.033287   -0.033287  -++2+0-
      111    0.031972   -0.031972  +22-0+0
      332   -0.031158    0.031158  ++-2-0+
      180   -0.029595    0.029595  -+2+200
      317    0.029220   -0.029220  ++2-200
      183   -0.028108    0.028108  202+-+0
      177    0.027675   -0.027675  2+20200
       38   -0.027119    0.027119  2202+00
       81    0.027025    0.027025  202-++0
       99   -0.026843    0.026843  20-20++
      248    0.026457   -0.026457  2+02200
        6    0.024243   -0.024243  22200+0
       73    0.023744   -0.023744  2+-2+00
      529    0.023115    0.023115  +022+-0
      526   -0.023109   -0.023109  ++220-0
      807   -0.022780    0.022780  2++-+0-
       42   -0.022773    0.022773  22020+0
       87   -0.022121    0.022121  2+-200+
      192   -0.022014    0.022014  2+-+-0+
      751    0.021406   -0.021406  2+20002
      806    0.021197    0.021197  2++200-
      534    0.021195    0.021195  0+22020
      393   -0.021144   -0.021144  202+020
      391    0.020580   -0.020580  2+20020
       51    0.020255   -0.020255  22+-00+

 State #    3  Energy =     -55.742172981

      Det      Coef        Coefp    Occupancy (Ignoring core)
      ---      ----        ----    --------- --------- -----
       36   -0.968350   -0.968350  22+2000
      463    0.078656   -0.078656  20+2020
      246   -0.078649   -0.078649  2++2-00
      456   -0.072852   -0.072852  2++20-0
       43    0.056711    0.056711  2-+20+0
      351   -0.049598   -0.049598  22++0-0
       39    0.047738    0.047738  2-+2+00
       71   -0.046595    0.046595  2+22000
       52    0.046577   -0.046577  220200+
      472   -0.044213   -0.044213  2+020-+
      121   -0.042319    0.042319  +22-00+
      112   -0.036983   -0.036983  +2-20+0
      285    0.035703   -0.035703  02+2200
       41    0.035283   -0.035283  22+-0+0
      460   -0.034808   -0.034808  -++2+-0
      288   -0.033032   -0.033032  +-+2-+0
      297    0.032589   -0.032589  +202-0+
       73    0.030911   -0.030911  2+-2+00
      282    0.029242    0.029242  +2+-200
      145   -0.029147   -0.029147  -2++200
      142    0.027834    0.027834  22+0200
       16   -0.027196    0.027196  222000+
       64    0.027014   -0.027014  2-020++
      457   -0.026369    0.026369  2++-+-0
      148   -0.026049   -0.026049  2-++-+0
      254    0.025037   -0.025037  -++2-+0
      157    0.023433   -0.023433  220+-0+
      716    0.023424    0.023424  22+0002
      771    0.023367    0.023367  +22+00-
      494    0.023277   -0.023277  +-+2+-0
      108   -0.022250   -0.022250  +2-2+00
       86    0.021763    0.021763  2+2-00+
      281    0.021725   -0.021725  +2+2-00
      249    0.020792   -0.020792  20+2200
       46    0.020595   -0.020595  2-+-++0
       44    0.020491   -0.020491  -2+20+0
      461    0.020443   -0.020443  2++-020
      356    0.020267    0.020267  22+0020

 ---------------------------------------
      - DIABATIC STATES IN CMO -        
 ---------------------------------------

 State #    1  Energy =     -55.982246521

      Det      Coef        Coefp    Occupancy (Ignoring core)
      ---      ----        ----    --------- --------- -----
        1    0.948160   -0.948160  222+000
       71    0.235412   -0.235412  2+22000
      393   -0.068159   -0.068159  202+020
      717   -0.060068   -0.060068  220+002
       36   -0.055906   -0.055906  22+2000
       17    0.040891    0.040891  22-+00+
      402    0.036760   -0.036760  2+-+0-+
      179   -0.036175   -0.036175  202+200
        8   -0.034314    0.034314  2-2+0+0
      357   -0.031218   -0.031218  220+020
      708    0.031051   -0.031051  2-++0+-
      215   -0.030967   -0.030967  022+200
      106   -0.027808   -0.027808  +222000
      389    0.027714    0.027714  202++-0
        4    0.026699   -0.026699  2-2++00
      390    0.026325   -0.026325  -+2++-0
      113   -0.024576    0.024576  +-220+0
       76    0.024220    0.024220  2+2-0+0
       51   -0.023790    0.023790  22+-00+
      183   -0.023190    0.023190  202+-+0
        6    0.022741   -0.022741  22200+0
      122    0.022257    0.022257  +2-200+
      227   -0.022151   -0.022151  +2-+-0+
      742   -0.022145   -0.022145  2+-+0+-
      705   -0.022009   -0.022009  -2+++0-
      214    0.021508    0.021508  +-2+200
      218    0.021183   -0.021183  +-2+-+0
      387   -0.020604    0.020604  2+20+-0
        2    0.020372   -0.020372  2220+00
      394    0.020229   -0.020229  -+2+020

 State #    2  Energy =     -55.843853939

      Det      Coef        Coefp    Occupancy (Ignoring core)
      ---      ----        ----    --------- --------- -----
       71   -0.934864    0.934864  2+22000
        1    0.243391   -0.243391  222+000
       36    0.185254    0.185254  22+2000
      822    0.059610   -0.059610  2+02002
      113    0.039755   -0.039755  +-220+0
      813    0.035310   -0.035310  20+20+-
      462    0.033508   -0.033508  2+02020
      320    0.030758    0.030758  0+22200
      183   -0.029291    0.029291  202+-+0
       74    0.028177   -0.028177  2022+00
        6    0.027851   -0.027851  22200+0
      177    0.027648   -0.027648  2+20200
       42   -0.027596    0.027596  22020+0
      810   -0.023140   -0.023140  -++2+0-
      751    0.022096   -0.022096  2+20002
      811   -0.021664    0.021664  2++-0+-
      323   -0.021347    0.021347  +022-+0
      332   -0.021345    0.021345  ++-2-0+
      534    0.021186    0.021186  0+22020
      107   -0.020523    0.020523  +22-+00
       79   -0.020508   -0.020508  -+220+0
      180   -0.020062    0.020062  -+2+200

 State #    3  Energy =     -55.742172981

      Det      Coef        Coefp    Occupancy (Ignoring core)
      ---      ----        ----    --------- --------- -----
       36   -0.961577   -0.961577  22+2000
       71   -0.194035    0.194035  2+22000
      463    0.066584   -0.066584  20+2020
      121   -0.042400    0.042400  +22-00+
      249    0.041708   -0.041708  20+2200
      112   -0.040353   -0.040353  +2-20+0
      472   -0.033881   -0.033881  2+020-+
      253    0.033235    0.033235  20+2-+0
      285    0.030678   -0.030678  02+2200
      459   -0.029037    0.029037  20+2+-0
       86    0.027580    0.027580  2+2-00+
        7    0.026919    0.026919  22-+0+0
       41   -0.025954    0.025954  22+-0+0
      716    0.025574    0.025574  22+0002
      771    0.024306    0.024306  +22+00-
       77    0.024271   -0.024271  2+-20+0
      356    0.024269    0.024269  22+0020
      250    0.023611    0.023611  -++2200
      142    0.022939    0.022939  22+0200
      460   -0.022523   -0.022523  -++2+-0
      284   -0.021833    0.021833  +-+2200
      297    0.021791   -0.021791  +202-0+
      288   -0.021730   -0.021730  +-+2-+0
      499    0.021384   -0.021384  02+2020
      367    0.021245   -0.021245  220+0-+
      491    0.021029   -0.021029  +2+20-0
       52    0.020961   -0.020961  220200+
      498    0.020208   -0.020208  +-+2020

 ---------------------------------------
    -DIABATIC STATES IN PROTOTYPES-     
 ---------------------------------------

     STATE:    1
 Group Ref#    Coefficients
     1    1    0.984123
     2    2    0.002456
     3    3    0.000570

WEIGHT OF LISTED PROTOTYPES:   96.85%

     STATE:    2
 Group Ref#    Coefficients
     1    1    0.002455
     2    2    0.984369
     3    3    0.000472

WEIGHT OF LISTED PROTOTYPES:   96.90%

     STATE:    3
 Group Ref#    Coefficients
     1    1    0.000572
     2    2    0.000474
     3    3    0.980304

WEIGHT OF LISTED PROTOTYPES:   96.10%

     DIRECT MAX. DIABATIZATION FINISHED    
 CPU     0: STEP CPU TIME=     0.25 TOTAL CPU TIME=         12.5 (      0.2 MIN)
 TOTAL WALL CLOCK TIME=         12.5 SECONDS, CPU UTILIZATION IS    99.92%

DIABATS FOR SPIN-ORBIT CALCULATION ARE READY

TRANSITION DIPOLES BETWEEN ADIABATS (in A.U.):

STATE PAIR      X         Y         Z
    1    1  0.203746 -0.057844  0.744069
    2    1  0.027234 -0.003538  0.107429
    2    2  0.120069  0.052700  0.274652
    3    1  0.009699 -0.086011 -0.028473
    3    2  0.055451  0.250034  0.001358
    3    3  0.426633 -0.176434  0.264883


TRANSITION DIPOLES BETWEEN DIABATS (in A.U.):

STATE PAIR      X         Y         Z
    1    1  0.209514 -0.051458  0.768939
    2    1 -0.003853 -0.009327 -0.005124
    2    2  0.104264 -0.051344  0.249064
    3    1 -0.009898  0.025595 -0.000464
    3    2 -0.006796  0.286473  0.004754
    3    3  0.436670 -0.078775  0.265601

TRANSITION DIPOLES BETWEEN DIRECT MAX. DIABATS (in A.U.):

STATE PAIR      X         Y         Z
    1    1  0.209514 -0.051458  0.768939
    2    1 -0.003853 -0.009328 -0.005124
    2    2  0.104265 -0.051344  0.249064
    3    1 -0.009898  0.025595 -0.000464
    3    2 -0.006797  0.286473  0.004754
    3    3  0.436670 -0.078775  0.265601
 No $TRANST Group Found.
 Quit without doing spin-orbit coupling
 ..... DONE WITH MP2 ENERGY .....
 CPU     0: STEP CPU TIME=     0.00 TOTAL CPU TIME=         12.5 (      0.2 MIN)
 TOTAL WALL CLOCK TIME=         12.5 SECONDS, CPU UTILIZATION IS    99.92%
            100000000  WORDS OF DYNAMIC MEMORY USED
 EXECUTION OF GAMESS TERMINATED NORMALLY Wed Nov 16 19:17:45 2022
 DDI: 715512 bytes (0.7 MB / 0 MWords) used by master data server.

 ----------------------------------------
 CPU timing information for all processes
 ========================================
 0: 12.174 + 0.324 = 12.498
 ----------------------------------------
Note: The following floating-point exceptions are signalling: IEEE_DENORMAL
 ddikick.x: exited gracefully.
unset echo
----- accounting info -----
Files used on the master node io002 were:
-rw-r--r-- 1 bsonghao nooijen   20747 Nov 16 19:17 /scratch/bsonghao/nh3_diabatization_2d_at_mode_7_8_dist-0.1_0.4.F05
-rw-r--r-- 1 bsonghao nooijen  363520 Nov 16 19:17 /scratch/bsonghao/nh3_diabatization_2d_at_mode_7_8_dist-0.1_0.4.F09
-rw-r--r-- 1 bsonghao nooijen 1995920 Nov 16 19:17 /scratch/bsonghao/nh3_diabatization_2d_at_mode_7_8_dist-0.1_0.4.F10
-rw-r--r-- 1 bsonghao nooijen  131264 Nov 16 19:17 /scratch/bsonghao/nh3_diabatization_2d_at_mode_7_8_dist-0.1_0.4.F13
-rw-r--r-- 1 bsonghao nooijen  180312 Nov 16 19:17 /scratch/bsonghao/nh3_diabatization_2d_at_mode_7_8_dist-0.1_0.4.F15
-rw-r--r-- 1 bsonghao nooijen       0 Nov 16 19:17 /scratch/bsonghao/nh3_diabatization_2d_at_mode_7_8_dist-0.1_0.4.F16
-rw-r--r-- 1 bsonghao nooijen    9808 Nov 16 19:17 /scratch/bsonghao/nh3_diabatization_2d_at_mode_7_8_dist-0.1_0.4.F70
-rw-r--r-- 1 bsonghao nooijen    9808 Nov 16 19:17 /scratch/bsonghao/nh3_diabatization_2d_at_mode_7_8_dist-0.1_0.4.F71
-rw-r--r-- 1 bsonghao nooijen   19608 Nov 16 19:17 /scratch/bsonghao/nh3_diabatization_2d_at_mode_7_8_dist-0.1_0.4.F72
-rw-r--r-- 1 bsonghao nooijen   19608 Nov 16 19:17 /scratch/bsonghao/nh3_diabatization_2d_at_mode_7_8_dist-0.1_0.4.F73
-rw-r--r-- 1 bsonghao nooijen 1920824 Nov 16 19:17 /scratch/bsonghao/nh3_diabatization_2d_at_mode_7_8_dist-0.1_0.4.F74
-rw-r--r-- 1 bsonghao nooijen       0 Nov 16 19:17 /scratch/bsonghao/nh3_diabatization_2d_at_mode_7_8_dist-0.1_0.4.F75
-rw-r--r-- 1 bsonghao nooijen   58848 Nov 16 19:17 /scratch/bsonghao/nh3_diabatization_2d_at_mode_7_8_dist-0.1_0.4.F76
-rw-r--r-- 1 bsonghao nooijen       0 Nov 16 19:17 /scratch/bsonghao/nh3_diabatization_2d_at_mode_7_8_dist-0.1_0.4.F77
-rw-r--r-- 1 bsonghao nooijen    1864 Nov 16 19:17 /scratch/bsonghao/nh3_diabatization_2d_at_mode_7_8_dist-0.1_0.4.F78
-rw-r--r-- 1 bsonghao nooijen   39208 Nov 16 19:17 /scratch/bsonghao/nh3_diabatization_2d_at_mode_7_8_dist-0.1_0.4.F79
-rw-r--r-- 1 bsonghao nooijen     104 Nov 16 19:17 /scratch/bsonghao/nh3_diabatization_2d_at_mode_7_8_dist-0.1_0.4.F80
-rw-r--r-- 1 bsonghao nooijen   13472 Nov 16 19:17 /scratch/bsonghao/nh3_diabatization_2d_at_mode_7_8_dist-0.1_0.4.F81
-rw-r--r-- 1 bsonghao nooijen      16 Nov 16 19:17 /scratch/bsonghao/nh3_diabatization_2d_at_mode_7_8_dist-0.1_0.4.F82
-rw-r--r-- 1 bsonghao nooijen   19216 Nov 16 19:17 /scratch/bsonghao/nh3_diabatization_2d_at_mode_7_8_dist-0.1_0.4.F83
-rw-r--r-- 1 bsonghao nooijen   29712 Nov 16 19:17 /scratch/bsonghao/nh3_diabatization_2d_at_mode_7_8_dist-0.1_0.4.F84
-rw-r--r-- 1 bsonghao nooijen  401576 Nov 16 19:17 /scratch/bsonghao/nh3_diabatization_2d_at_mode_7_8_dist-0.1_0.4.F85
-rw-r--r-- 1 bsonghao nooijen  903672 Nov 16 19:17 /scratch/bsonghao/nh3_diabatization_2d_at_mode_7_8_dist-0.1_0.4.F86
-rw-r--r-- 1 bsonghao nooijen     656 Nov 16 19:17 /scratch/bsonghao/nh3_diabatization_2d_at_mode_7_8_dist-0.1_0.4.F87
-rw-r--r-- 1 bsonghao nooijen   31600 Nov 16 19:17 /scratch/bsonghao/nh3_diabatization_2d_at_mode_7_8_dist-0.1_0.4.F88
-rw-r--r-- 1 bsonghao nooijen     240 Nov 16 19:17 /scratch/bsonghao/nh3_diabatization_2d_at_mode_7_8_dist-0.1_0.4.F89
-rw-r--r-- 1 bsonghao nooijen       0 Nov 16 19:17 /scratch/bsonghao/nh3_diabatization_2d_at_mode_7_8_dist-0.1_0.4.F90
-rw-r--r-- 1 bsonghao nooijen   13760 Nov 16 19:17 /scratch/bsonghao/nh3_diabatization_2d_at_mode_7_8_dist-0.1_0.4.F91
-rw-r--r-- 1 bsonghao nooijen   22776 Nov 16 19:17 /scratch/bsonghao/nh3_diabatization_2d_at_mode_7_8_dist-0.1_0.4.F92
-rw-r--r-- 1 bsonghao nooijen   23168 Nov 16 19:17 /scratch/bsonghao/nh3_diabatization_2d_at_mode_7_8_dist-0.1_0.4.F93
-rw-r--r-- 1 bsonghao nooijen   22776 Nov 16 19:17 /scratch/bsonghao/nh3_diabatization_2d_at_mode_7_8_dist-0.1_0.4.F94
-rw-r--r-- 1 bsonghao nooijen   13760 Nov 16 19:17 /scratch/bsonghao/nh3_diabatization_2d_at_mode_7_8_dist-0.1_0.4.F95
-rw-r--r-- 1 bsonghao nooijen   29440 Nov 16 19:17 /scratch/bsonghao/nh3_diabatization_2d_at_mode_7_8_dist-0.1_0.4.F96
-rw-r--r-- 1 bsonghao nooijen    1184 Nov 16 19:17 /scratch/bsonghao/nh3_diabatization_2d_at_mode_7_8_dist-0.1_0.4.F97
-rw-r--r-- 1 bsonghao nooijen    9808 Nov 16 19:17 /scratch/bsonghao/nh3_diabatization_2d_at_mode_7_8_dist-0.1_0.4.F98
-rw-r--r-- 1 bsonghao nooijen   30264 Nov 16 19:17 /scratch/bsonghao/nh3_diabatization_2d_at_mode_7_8_dist-0.1_0.4.F99
ls: No match.
ls: No match.
ls: No match.
Wed 16 Nov 2022 07:17:48 PM EST
0.272u 0.057s 0:15.87 2.0%	0+0k 48+224io 0pf+0w
