----- GAMESS execution script 'rungms' -----
This job is running on host io002
under operating system Linux at Wed 16 Nov 2022 07:10:49 PM EST
Available scratch disk space (Kbyte units) at beginning of the job is
Filesystem       1K-blocks       Used   Available Use% Mounted on
/dev/sdc1      15378471580 3278917120 11318349060  23% /scratch
GAMESS temporary binary files will be written to /scratch/bsonghao
GAMESS supplementary output files will be written to /home/bsonghao/.gamess_ascii_files/267638
Copying input file nh3_diabatization_2d_at_mode_7_8_dist-0.2_0.6.inp to your run's scratch directory...
cp nh3_diabatization_2d_at_mode_7_8_dist-0.2_0.6.inp /scratch/bsonghao/nh3_diabatization_2d_at_mode_7_8_dist-0.2_0.6.F05
unset echo
/home/bjb2chen/gamess/ddikick.x /home/bjb2chen/gamess/gamess.00.x nh3_diabatization_2d_at_mode_7_8_dist-0.2_0.6 -ddi 1 1 io002 -scr /scratch/bsonghao

 Distributed Data Interface kickoff program.
 Initiating 1 compute processes on 1 nodes to run the following command:
 /home/bjb2chen/gamess/gamess.00.x nh3_diabatization_2d_at_mode_7_8_dist-0.2_0.6 

          ******************************************************
          *         GAMESS VERSION = 02 AUG 2018 (R2)         *
          *             FROM IOWA STATE UNIVERSITY             *
          * M.W.SCHMIDT, K.K.BALDRIDGE, J.A.BOATZ, S.T.ELBERT, *
          *   M.S.GORDON, J.H.JENSEN, S.KOSEKI, N.MATSUNAGA,   *
          *          K.A.NGUYEN, S.J.SU, T.L.WINDUS,           *
          *       TOGETHER WITH M.DUPUIS, J.A.MONTGOMERY       *
          *         J.COMPUT.CHEM.  14, 1347-1363(1993)        *
          **************** 64 BIT LINUX VERSION ****************

  SINCE 1993, STUDENTS AND POSTDOCS WORKING AT IOWA STATE UNIVERSITY
  AND ALSO IN THEIR VARIOUS JOBS AFTER LEAVING ISU HAVE MADE IMPORTANT
  CONTRIBUTIONS TO THE CODE:
     IVANA ADAMOVIC, CHRISTINE AIKENS, YURI ALEXEEV, POOJA ARORA,
     ANDREY ASADCHEV, ROB BELL, PRADIPTA BANDYOPADHYAY, JONATHAN BENTZ,
     BRETT BODE, KURT BRORSEN, CALEB CARLIN, GALINA CHABAN, WEI CHEN,
     CHEOL HO CHOI, PAUL DAY, ALBERT DEFUSCO, NUWAN DESILVA, TIM DUDLEY,
     DMITRI FEDOROV, ALEX FINDLATER, GRAHAM FLETCHER, MARK FREITAG,
     KURT GLAESEMANN, ANASTASIA GUININA,
     DAN KEMP, GRANT MERRILL, NORIYUKI MINEZAWA, JONATHAN MULLIN,
     TAKESHI NAGATA, SEAN NEDD, HEATHER NETZLOFF, BOSILJKA NJEGIC, RYAN OLSON,
     MIKE PAK, BUU PHAM,
     SPENCER PRUITT, LUKE ROSKOP, JIM SHOEMAKER, LYUDMILA SLIPCHENKO,
     TONY SMITH, SAROM SOK LEANG, JIE SONG, TETSUYA TAKETSUGU, SIMON WEBB,
     PENG XU, SOOHAENG YOO, FEDERICO ZAHARIEV

  ADDITIONAL CODE HAS BEEN PROVIDED BY COLLABORATORS IN OTHER GROUPS:
     IOWA STATE UNIVERSITY:
          JOE IVANIC, AARON WEST, LAIMUTIS BYTAUTAS, KLAUS RUEDENBERG
     UNIVERSITY OF TOKYO: KIMIHIKO HIRAO, TAKAHITO NAKAJIMA,
          TAKAO TSUNEDA, MUNEAKI KAMIYA, SUSUMU YANAGISAWA,
          KIYOSHI YAGI, MAHITO CHIBA, SEIKEN TOKURA, NAOAKI KAWAKAMI
     UNIVERSITY OF AARHUS: FRANK JENSEN
     UNIVERSITY OF IOWA: VISVALDAS KAIRYS, HUI LI
     NATIONAL INST. OF STANDARDS AND TECHNOLOGY: WALT STEVENS, DAVID GARMER
     UNIVERSITY OF PISA: BENEDETTA MENNUCCI, JACOPO TOMASI
     UNIVERSITY OF MEMPHIS: HENRY KURTZ, PRAKASHAN KORAMBATH
     UNIVERSITY OF ALBERTA: TOBY ZENG, MARIUSZ KLOBUKOWSKI
     UNIVERSITY OF NEW ENGLAND: MARK SPACKMAN
     MIE UNIVERSITY: HIROAKI UMEDA
     NAT. INST. OF ADVANCED INDUSTRIAL SCIENCE AND TECHNOLOGY: KAZUO KITAURA
     MICHIGAN STATE UNIVERSITY:
          KAROL KOWALSKI, MARTA WLOCH, JEFFREY GOUR, JESSE LUTZ,
          WEI LI, JUN SHEN, J. EMILIANO DEUSTUA, PIOTR PIECUCH
     UNIVERSITY OF MINNESOTA:
          YINAN SHU
     UNIVERSITY OF SILESIA: MONIKA MUSIAL, STANISLAW KUCHARSKI
     FACULTES UNIVERSITAIRES NOTRE-DAME DE LA PAIX:
          OLIVIER QUINET, BENOIT CHAMPAGNE
     UNIVERSITY OF CALIFORNIA - SANTA BARBARA: BERNARD KIRTMAN
     INSTITUTE FOR MOLECULAR SCIENCE:
          KAZUYA ISHIMURA, MICHIO KATOUDA, AND SHIGERU NAGASE
     UNIVERSITY OF NOTRE DAME: ANNA POMOGAEVA, DAN CHIPMAN
     KYUSHU UNIVERSITY:
          HARUYUKI NAKANO,
          FENG LONG GU, JACEK KORCHOWIEC, MARCIN MAKOWSKI, AND YURIKO AOKI,
          HIROTOSHI MORI AND EISAKU MIYOSHI
     PENNSYLVANIA STATE UNIVERSITY:
          TZVETELIN IORDANOV, CHET SWALINA, JONATHAN SKONE,
          SHARON HAMMES-SCHIFFER
     WASEDA UNIVERSITY:
          MASATO KOBAYASHI, TOMOKO AKAMA, TSUGUKI TOUMA,
          TAKESHI YOSHIKAWA, YASUHIRO IKABATA, JUNJI SEINO,
          YUYA NAKAJIMA, HIROMI NAKAI
     NANJING UNIVERSITY: SHUHUA LI
     UNIVERSITY OF NEBRASKA:
          PEIFENG SU, DEJUN SI, NANDUN THELLAMUREGE, YALI WANG, HUI LI
     UNIVERSITY OF ZURICH: ROBERTO PEVERATI, KIM BALDRIDGE
     N. COPERNICUS UNIVERSITY AND JACKSON STATE UNIVERSITY:
          MARIA BARYSZ
     UNIVERSITY OF COPENHAGEN: Jimmy Kromann, CASPER STEINMANN
     TOKYO INSTITUTE OF TECHNOLOGY: HIROYA NAKATA
     NAGOYA UNIVERSITY: YOSHIO NISHIMOTO, STEPHAN IRLE
     MOSCOW STATE UNIVERSITY: VLADIMIR MIRONOV

 EXECUTION OF GAMESS BEGUN Wed Nov 16 19:10:49 2022

            ECHO OF THE FIRST FEW INPUT CARDS -
 INPUT CARD> $system kdiag=3 mwords=100 memddi=1000 parall=.t. $end                         
 INPUT CARD> $contrl runtyp=energy ispher=1 $end                                            
 INPUT CARD> $contrl icut=9 itol=20 inttyp=rysquad qmttol=1.0d-05 nosym=1 $end              
 INPUT CARD> $scf    npunch=2 conv=1.0d-06 dirscf=.t.      $end                             
 INPUT CARD> $contrl scftyp=mcscf  mult=2 maxit=200 icharg=1 mplevl=2 $end                  
 INPUT CARD> $guess  guess=moread norb=29 purify=.t. $end                                   
 INPUT CARD> $basis  gbasis=ccd $end                                                        
 INPUT CARD> $mcscf  cistep=gmcci fullnr=.t. finci=mos                                      
 INPUT CARD>         acurcy=1.d-6 maxit=100 $end                                            
 INPUT CARD> $trans  dirtrf=.t. $end                                                        
 INPUT CARD> $mrmp   mrpt=gmcpt rdvecs=.f. $end                                             
 INPUT CARD> $gmcpt  nmofzc=0 nmodoc=1 nmoact=7 nelact=7 stsym(1)=A                         
 INPUT CARD>         reftyp=ormas nspace=1 mstart(1)=2 mine(1)=7 maxe(1)=7                  
 INPUT CARD>         kstate(1)=1,1,1                                                        
 INPUT CARD>         wstate(1)=1,1,1                                                        
 INPUT CARD>         iwgt=0 thrwgt=-1.0 krot=.f. kszdoe=.f. knospn=.f.                      
 INPUT CARD>         thrde=-1.0 edshft=0.02 $end                                            
 INPUT CARD> $data                                                                          
 INPUT CARD> NH3+ 3 states calculation at NH3 structure.                                    
 INPUT CARD> c1                                                                             
 INPUT CARD>N 7.0 -0.03737350800000001 0.012457805999999998 -0.1693810082                   
 INPUT CARD>H 1.0 -0.23627249399999994 1.0216684738000001 0.13154813010000002               
 INPUT CARD>H 1.0 -0.08342187200000001 -1.0488224078000001 0.2229910681                     
 INPUT CARD>H 1.0 0.839009288 -0.14595147599999997 0.41484644810000004                      
 INPUT CARD>$end                                                                            
 INPUT CARD>--- OPTIMIZED RHF      MO-S --- GENERATED AT Mon Nov 14 16:47:08 2022           
 INPUT CARD>E=      -56.3825050291, E(NUC)=   11.8429239490                                 
 INPUT CARD> $VEC                                                                           
 INPUT CARD> 1  1-1.00134066E+00-2.25158504E-03 3.44925845E-03 0.00000000E+00 0.00000000E+00
 INPUT CARD> 1  2-2.13170927E-03 0.00000000E+00 0.00000000E+00 6.57129898E-04-6.87950443E-05
 INPUT CARD> 1  3-6.87950443E-05 1.37590089E-04 0.00000000E+00 0.00000000E+00 0.00000000E+00
 INPUT CARD> 1  4 3.25502815E-04-4.84772356E-04 3.62525460E-04-6.27912517E-04-3.45956485E-04
 INPUT CARD> 1  5 3.25502815E-04-4.84772356E-04 3.62525460E-04 6.27912517E-04-3.45956485E-04
 INPUT CARD> 1  6 3.25502815E-04-4.84772356E-04-7.25050921E-04 0.00000000E+00-3.45956485E-04
 INPUT CARD> 2  1 1.31286642E-02-4.05911371E-01-2.82090992E-01 0.00000000E+00 0.00000000E+00
 INPUT CARD> 2  2-7.71489043E-02 0.00000000E+00 0.00000000E+00 9.73717494E-03 6.62450916E-04
 INPUT CARD> 2  3 6.62450916E-04-1.32490183E-03 0.00000000E+00 0.00000000E+00 0.00000000E+00
 INPUT CARD> 2  4-1.96090317E-01-1.96656153E-02-1.74855877E-02 3.02859263E-02 8.68214399E-03
 INPUT CARD> 2  5-1.96090317E-01-1.96656153E-02-1.74855877E-02-3.02859263E-02 8.68214399E-03
 INPUT CARD> 2  6-1.96090317E-01-1.96656153E-02 3.49711754E-02 0.00000000E+00 8.68214399E-03
 INPUT CARD> 3  1 0.00000000E+00 0.00000000E+00 0.00000000E+00 4.48608762E-01 0.00000000E+00
 INPUT CARD> 3  2 0.00000000E+00 2.18692520E-01 0.00000000E+00 0.00000000E+00 1.30198027E-02
 INPUT CARD> 3  3-1.30198027E-02 0.00000000E+00 0.00000000E+00 2.71832968E-02 0.00000000E+00
 INPUT CARD> 3  4-1.85332726E-01-7.03958951E-02 8.47929477E-03 1.95242443E-02 8.32835058E-03
 INPUT CARD> 3  5-1.85332726E-01-7.03958951E-02 8.47929477E-03-1.95242443E-02 8.32835058E-03
 INPUT CARD> 3  6 3.70665453E-01 1.40791790E-01-2.53376884E-02 0.00000000E+00-1.66567012E-02
 INPUT CARD> 4  1 0.00000000E+00 0.00000000E+00 0.00000000E+00 0.00000000E+00 4.48608762E-01
 INPUT CARD> 4  2 0.00000000E+00 0.00000000E+00 2.18692520E-01 0.00000000E+00 0.00000000E+00
 INPUT CARD> 4  3 0.00000000E+00 0.00000000E+00-1.50339731E-02 0.00000000E+00 2.71832968E-02
 INPUT CARD> 4  4 3.21005698E-01 1.21929267E-01 1.95242443E-02-1.40653607E-02-1.44251263E-02
  100000000 WORDS OF MEMORY AVAILABLE

     BASIS OPTIONS
     -------------
     GBASIS=CCD          IGAUSS=       0      POLAR=NONE    
     NDFUNC=       0     NFFUNC=       0     DIFFSP=       F
     NPFUNC=       0      DIFFS=       F     BASNAM=        


     RUN TITLE
     ---------
  NH3+ 3 states calculation at NH3 structure.                                    

 THE POINT GROUP OF THE MOLECULE IS C1      
 THE ORDER OF THE PRINCIPAL AXIS IS     0

 ATOM      ATOMIC                      COORDINATES (BOHR)
           CHARGE         X                   Y                   Z
 N           7.0    -0.0706256893        0.0235418397       -0.3200836930
 H           1.0    -0.4464902721        1.9306734658        0.2485899201
 H           1.0    -0.1576444795       -1.9819869605        0.4213920164
 H           1.0     1.5854976555       -0.2758082971        0.7839461139

          INTERNUCLEAR DISTANCES (ANGS.)
          ------------------------------

                1 N          2 H          3 H          4 H     

   1 N       0.0000000    1.0717394 *  1.1324275 *  1.0651113 *
   2 H       1.0717394 *  0.0000000    2.0781380 *  1.6123973 *
   3 H       1.1324275 *  2.0781380 *  0.0000000    1.3049382 *
   4 H       1.0651113 *  1.6123973 *  1.3049382 *  0.0000000  

  * ... LESS THAN  3.000


     ATOMIC BASIS SET
     ----------------
 THE CONTRACTED PRIMITIVE FUNCTIONS HAVE BEEN UNNORMALIZED
 THE CONTRACTED BASIS FUNCTIONS ARE NOW NORMALIZED TO UNITY

  SHELL TYPE  PRIMITIVE        EXPONENT          CONTRACTION COEFFICIENT(S)

 N         

      1   S       1          9046.0000000    0.000699617413
      1   S       2          1357.0000000    0.005386054630
      1   S       3           309.3000000    0.027391021189
      1   S       4            87.7300000    0.103150591982
      1   S       5            28.5600000    0.278570663317
      1   S       6            10.2100000    0.448294849454
      1   S       7             3.8380000    0.278085928395
      1   S       8             0.7466000    0.015431561233

      2   S       9          9046.0000000   -0.000304990096
      2   S      10          1357.0000000   -0.002408026379
      2   S      11           309.3000000   -0.011944448725
      2   S      12            87.7300000   -0.048925992909
      2   S      13            28.5600000   -0.134472724725
      2   S      14            10.2100000   -0.315112577700
      2   S      15             3.8380000   -0.242857832550
      2   S      16             0.7466000    1.094382206854

      3   S      17             0.2248000    1.000000000000

      4   P      18            13.5500000    0.058905676772
      4   P      19             2.9170000    0.320461106714
      4   P      20             0.7973000    0.753042061792

      5   P      21             0.2185000    1.000000000000

      6   D      22             0.8170000    1.000000000000

 H         

      7   S      23            13.0100000    0.033498726390
      7   S      24             1.9620000    0.234800801174
      7   S      25             0.4446000    0.813682957883

      8   S      26             0.1220000    1.000000000000

      9   P      27             0.7270000    1.000000000000

 H         

     10   S      28            13.0100000    0.033498726390
     10   S      29             1.9620000    0.234800801174
     10   S      30             0.4446000    0.813682957883

     11   S      31             0.1220000    1.000000000000

     12   P      32             0.7270000    1.000000000000

 H         

     13   S      33            13.0100000    0.033498726390
     13   S      34             1.9620000    0.234800801174
     13   S      35             0.4446000    0.813682957883

     14   S      36             0.1220000    1.000000000000

     15   P      37             0.7270000    1.000000000000

 TOTAL NUMBER OF BASIS SET SHELLS             =   15
 NUMBER OF CARTESIAN GAUSSIAN BASIS FUNCTIONS =   30
 NOTE: THIS RUN WILL RESTRICT THE MO VARIATION SPACE TO SPHERICAL HARMONICS.
 THE NUMBER OF ORBITALS KEPT IN THE VARIATIONAL SPACE WILL BE PRINTED LATER.
 NUMBER OF ELECTRONS                          =    9
 CHARGE OF MOLECULE                           =    1
 SPIN MULTIPLICITY                            =    2
 NUMBER OF OCCUPIED ORBITALS (ALPHA)          =    5
 NUMBER OF OCCUPIED ORBITALS (BETA )          =    4
 TOTAL NUMBER OF ATOMS                        =    4
 THE NUCLEAR REPULSION ENERGY IS       11.1934998135

     $CONTRL OPTIONS
     ---------------
 SCFTYP=MCSCF        RUNTYP=ENERGY       EXETYP=RUN     
 MPLEVL=       2     CITYP =NONE         CCTYP =NONE         VBTYP =NONE    
 DFTTYP=NONE         TDDFT =NONE    
 MULT  =       2     ICHARG=       1     NZVAR =       0     COORD =UNIQUE  
 PP    =NONE         RELWFN=NONE         LOCAL =NONE         NUMGRD=       F
 ISPHER=       1     NOSYM =       1     MAXIT =     200     UNITS =ANGS    
 PLTORB=       F     MOLPLT=       F     AIMPAC=       F     FRIEND=        
 NPRINT=       7     IREST =       0     GEOM  =INPUT   
 NORMF =       0     NORMP =       0     ITOL  =      20     ICUT  =       9
 INTTYP=RYSQUAD      GRDTYP=BEST         QMTTOL= 1.0E-05

     $SYSTEM OPTIONS
     ---------------
  REPLICATED MEMORY=   100000000 WORDS (ON EVERY NODE).
 DISTRIBUTED MEMDDI=        1000 MILLION WORDS IN AGGREGATE,
 MEMDDI DISTRIBUTED OVER   1 PROCESSORS IS  1000000000 WORDS/PROCESSOR.
 TOTAL MEMORY REQUESTED ON EACH PROCESSOR=  1100000000 WORDS.
 TIMLIM=      525600.00 MINUTES, OR     365.0 DAYS.
 PARALL= T  BALTYP=  DLB     KDIAG=    3  COREFL= F
 MXSEQ2=     300 MXSEQ3=     150  mem10=         0

          ----------------
          PROPERTIES INPUT
          ----------------

     MOMENTS            FIELD           POTENTIAL          DENSITY
 IEMOM =       1   IEFLD =       0   IEPOT =       0   IEDEN =       0
 WHERE =COMASS     WHERE =NUCLEI     WHERE =NUCLEI     WHERE =NUCLEI  
 OUTPUT=BOTH       OUTPUT=BOTH       OUTPUT=BOTH       OUTPUT=BOTH    
 IEMINT=       0   IEFINT=       0                     IEDINT=       0
                                                       MORB  =       0

     -------------------------------
     INTEGRAL TRANSFORMATION OPTIONS
     -------------------------------
     NWORD  =            0
     CUTOFF = 1.0E-09     MPTRAN =       0
     DIRTRF =       T     AOINTS =DUP     

          ----------------------
          MCSCF INPUT PARAMETERS
          ----------------------
 CONVERGER SELECTION: FOCAS = F  SOSCF = F  FULLNR = T  QUD = F  JACOBI = F
 SECULAR EQUATION METHOD CISTEP = GMCCI   
 --- GENERAL INPUT OPTIONS:
 MAXIT =     100  MICIT =       1  ACURCY= 1.000E-06
 DAMP  =   0.000  CANONC=       T  ENGTOL= 1.000E-10
 EKT   =       F  NPUNCH=       2  NWORD =         0
 REGENERATE CI AFTER CONVERGENCE = NONE    
 DIABATIZATION AFTER CONVERGENCE =        F
 --- INPUT FOR FULLNR CONVERGER:
 METHOD=DM2       FORS  =       F  DROPC =       T
 LINSER=       F  FCORE =       F  NORB  =      30

          ----------------------
          INTEGRAL INPUT OPTIONS
          ----------------------
 NOPK  =       1 NORDER=       0 SCHWRZ=       T

 ------------------------------------------
 MULTIREFERENCE PERTURBATION THEORY CONTROL
 ------------------------------------------
 MRPT=GMCPT    READ CONVERGED MCSCF VECTORS= F


     ------------------------------------------
     THE POINT GROUP IS C1 , NAXIS= 1, ORDER= 1
     ------------------------------------------

 -- VARIATIONAL SPACE WILL BE RESTRICTED TO PURE SPHERICAL HARMONICS ONLY --
 AFTER EXCLUDING CONTAMINANT COMBINATIONS FROM THE CARTESIAN GAUSSIAN BASIS
 SET, THE NUMBER OF SPHERICAL HARMONICS KEPT IN THE VARIATION SPACE IS   29

     DIMENSIONS OF THE SYMMETRY SUBSPACES ARE
 A   =   29

 ..... DONE SETTING UP THE RUN .....
 CPU     0: STEP CPU TIME=     0.03 TOTAL CPU TIME=          0.0 (      0.0 MIN)
 TOTAL WALL CLOCK TIME=          0.0 SECONDS, CPU UTILIZATION IS    75.00%

          ********************
          1 ELECTRON INTEGRALS
          ********************
 TIME TO DO   DIPOLE INTEGRALS=      0.00
 ...... END OF ONE-ELECTRON INTEGRALS ......
 CPU     0: STEP CPU TIME=     0.00 TOTAL CPU TIME=          0.0 (      0.0 MIN)
 TOTAL WALL CLOCK TIME=          0.0 SECONDS, CPU UTILIZATION IS    75.00%

          -------------
          GUESS OPTIONS
          -------------
          GUESS =MOREAD            NORB  =      29          NORDER=       0
          MIX   =       F          PRTMO =       F          PUNMO =       F
          TOLZ  = 1.0E-08          TOLE  = 1.0E-05
          SYMDEN=       F          PURIFY=       T

 INITIAL GUESS ORBITALS GENERATED BY MOREAD   ROUTINE.

 STATISTICS FOR GENERATION OF SYMMETRY ORBITAL -Q- MATRIX
 NUMBER OF CARTESIAN ATOMIC ORBITALS=         30
 NUMBER OF SPHERICAL CONTAMINANTS DROPPED=     1
 NUMBER OF LINEARLY DEPENDENT MOS DROPPED=     0
 TOTAL NUMBER OF MOS IN VARIATION SPACE=      29
 ORBITAL PURIFICATION WILL OCCUR

 SYMMETRIES FOR INITIAL GUESS ORBITALS FOLLOW.   BOTH SET(S).
     5 ORBITALS ARE OCCUPIED (    1 CORE ORBITALS).
     1=A        2=A        3=A        4=A        5=A        6=A        7=A   
     8=A        9=A       10=A       11=A       12=A       13=A       14=A   
    15=A       16=A       17=A       18=A       19=A       20=A       21=A   
    22=A       23=A       24=A       25=A       26=A       27=A       28=A   
    29=A   
 ...... END OF INITIAL ORBITAL SELECTION ......
 CPU     0: STEP CPU TIME=     0.02 TOTAL CPU TIME=          0.0 (      0.0 MIN)
 TOTAL WALL CLOCK TIME=          0.1 SECONDS, CPU UTILIZATION IS   100.00%

                    ----------------------
                    AO INTEGRAL TECHNOLOGY
                    ----------------------
     S,P,L SHELL ROTATED AXIS INTEGRALS, REPROGRAMMED BY
        KAZUYA ISHIMURA (IMS) AND JOSE SIERRA (SYNSTAR).
     S,P,D,L SHELL ROTATED AXIS INTEGRALS PROGRAMMED BY
        KAZUYA ISHIMURA (INSTITUTE FOR MOLECULAR SCIENCE).
     S,P,D,F,G SHELL TO TOTAL QUARTET ANGULAR MOMENTUM SUM 5,
        ERIC PROGRAM BY GRAHAM FLETCHER (ELORET AND NASA ADVANCED
        SUPERCOMPUTING DIVISION, AMES RESEARCH CENTER).
     S,P,D,F,G,L SHELL GENERAL RYS QUADRATURE PROGRAMMED BY
        MICHEL DUPUIS (PACIFIC NORTHWEST NATIONAL LABORATORY).

          --------------------
          2 ELECTRON INTEGRALS
          --------------------

 DIRECT SCF METHOD SKIPS INTEGRAL STORAGE ON DISK.
 DIRECT TRANSFORMATION SKIPS AO INTEGRAL STORAGE ON DISK.
  ...... END OF TWO-ELECTRON INTEGRALS .....
 STEP CPU TIME =     0.02 TOTAL CPU TIME =          0.1 (      0.0 MIN)
 TOTAL WALL CLOCK TIME=          0.1 SECONDS, CPU UTILIZATION IS   100.00%
 DDI: Creating Array [0] - 900 x 36 = 32400 words.
 DDI: Creating Array [1] - 21 x 288 = 6048 words.
 DDI: Creating Array [2] - 36 x 36 = 1296 words.
 DDI: Creating Array [3] - 465 x 36 = 16740 words.

          -----------------
          MCSCF CALCULATION
          -----------------

 ----- NUCLEAR ENERGY ----- =        11.1934998135

     -------------------------------------------------
     GMC-PT/GMC-QDPT or general MCSCF input parameters
     -------------------------------------------------
 # of frozen core orbs. =         0 ->         0
 # of doubly occ. orbs. =         1
 # of active      orbs. =         7
 # of virtual     orbs. =        21
 # of active electrons  =         7
 # of states in CI      =         3
 Highest state in CI    =         3
 kstate =  1 1 1
 avecoe =  0.333 0.333 0.333
 State symmetry           = A           
 Assigned symmetry number = 1

 <<<Act. MO sym.: 1111111

 <<<Division of 1-ext.:  0
 <<<Division of 2-ext.:  0

 *** Reference space

 Reference type: ORMAS (= Occupation restricted multiple active space)
 # of orbitals          =  7
 # of minimum electrons =  7
 # of maximum electrons =  7
 State symmetry    =    1 (input)
 2*Sz              =    1 (input)
 Spin multiplicity =    2 (input)
 Dimension of reference space =      1225  (from      3432 walks)

 Dimension of reference space =      1225  (from      1225 walks)

 <<<Ionized spaces for Ref-CI:
      0:         1225 /   -1-0:         1960 /  0-1-0:         2891

 EVALUATING EXCHANGE INTEGRALS FOR DIRECT INTEGRAL TRANSFORMATION
 SCHWARZ INEQUALITY OVERHEAD:       465 INTEGRALS, T=        0.00

     --------------------------------------------
     PARTIAL TWO ELECTRON INTEGRAL TRANSFORMATION
     --------------------------------------------

 NUMBER OF CORE MOLECULAR ORBITALS     =    1
 NUMBER OF OCCUPIED MOLECULAR ORBITALS =    8
 TOTAL NUMBER OF MOLECULAR ORBITALS    =   29
 TOTAL NUMBER OF ATOMIC ORBITALS       =   30
 THRESHOLD FOR KEEPING TRANSFORMED 2E- INTEGRALS = 1.000E-09

 -------------------------------     ------------------------------
 DISTRIBUTED DATA TRANSFORMATION     PROGRAM WRITTEN BY G. FLETCHER
 -------------------------------     ------------------------------

 THE DISTRIBUTED MEMORY REQUIRED FOR THIS STEP IS MEMDDI=         1 MWORDS
 CREATING DISTRIBUTED STORAGE FOR [VIR OCC|VIR OCC] INTEGRALS
 CREATING DISTRIBUTED STORAGE FOR [VIR OCC|OCC OCC] INTEGRALS
 CREATING DISTRIBUTED STORAGE FOR [OCC OCC|OCC OCC] INTEGRALS
 CREATING DISTRIBUTED STORAGE FOR [VIR VIR|OCC OCC] INTEGRALS
 FOR    1 PROCESSORS, THE REPLICATED MEMORY NEEDED IS       73700 WORDS.
 SCHWARZ INEQUALITY OVERHEAD:       465 INTEGRALS, T=        0.00

      DIRECT 4-INDEX TRANSFORMATION 
      SCHWARZ INEQUALITY TEST SKIPPED          0 INTEGRAL BLOCKS
 ----- FROZEN CORE ENERGY =       -47.6477533854
 ... END OF INTEGRAL TRANSFORMATION ...
 CPU     0: STEP CPU TIME=     0.21 TOTAL CPU TIME=          0.3 (      0.0 MIN)
 TOTAL WALL CLOCK TIME=          0.3 SECONDS, CPU UTILIZATION IS    96.55%

     --------------------------------     -----------------------------
     MCHF NEWTON-RAPHSON OPTIMIZATION     CODE WRITTEN BY MICHEL DUPUIS
     --------------------------------     -----------------------------
     PARALLEL VERSION WRITTEN BY G. FLETCHER (ELORET)
     NASA ADVANCED SUPERCOMPUTING DIVISION, AMES RESEARCH CENTER

 NUMBER OF INDEPENDENT ORBITAL ROTATION PARAMETERS =   175
 ..... DONE SOLVING NEWTON-RAPHSON EQUATIONS .....
 CPU     0: STEP CPU TIME=     0.90 TOTAL CPU TIME=          1.2 (      0.0 MIN)
 TOTAL WALL CLOCK TIME=          1.2 SECONDS, CPU UTILIZATION IS   100.00%
 ..... DONE WITH NTN-RPH ORBITAL ROTATIONS ..... 
 CPU     0: STEP CPU TIME=     0.00 TOTAL CPU TIME=          1.2 (      0.0 MIN)
 TOTAL WALL CLOCK TIME=          1.2 SECONDS, CPU UTILIZATION IS   100.00%
 MAXIMUM MEMORY USED BY NTN-RPH CODE WAS     57645 WORDS.

 ITER     TOTAL ENERGY      DEL(E)  LAGRANGIAN ASYMMETRY   SQCDF  MICIT   DAMP
   1      -55.620457121 -0.620457121  0.113413   12    5 1.145E-01  1   0.0000
   2      -55.672122831 -0.051665709  0.020184   12    5 4.594E-01  1   0.0000
   3      -55.707561130 -0.035438299  0.013509   11    6 2.232E-01  1   0.0208
   4      -55.723242160 -0.015681030  0.004668   11    6 4.185E-02  1   0.0053
   5      -55.725261809 -0.002019650  0.001028   13    5 1.029E-03  1   0.0000
   6      -55.725318107 -0.000056298  0.000415   13    5 7.531E-05  1   0.0000
   7      -55.725323741 -0.000005633  0.000179   13    5 1.412E-05  1   0.0000
   8      -55.725324849 -0.000001108  0.000083   13    5 3.360E-06  1   0.0000
   9      -55.725325110 -0.000000262  0.000040   22    5 9.075E-07  1   0.0000
  10      -55.725325179 -0.000000069  0.000020   22    5 2.654E-07  1   0.0000
  11      -55.725325199 -0.000000020  0.000010   22    5 8.188E-08  1   0.0000
  12      -55.725325204 -0.000000006  0.000005   22    5 2.605E-08  1   0.0000
  13      -55.725325206 -0.000000002  0.000003   22    5 8.543E-09  1   0.0000
  14      -55.725325207 -0.000000001  0.000001   22    5 2.850E-09  1   0.0000
  15      -55.725325207 -0.000000000  0.000001   22    5 9.660E-10  1   0.0000

          --------------------
          LAGRANGIAN CONVERGED
          --------------------

 FINAL MCSCF ENERGY IS      -55.7253252070 AFTER  15 ITERATIONS

 -MCCI- BASED ON OPTIMIZED ORBITALS
 ----------------------------------

 PLEASE NOTE: IF THE ACTIVE ORBITALS ARE CANONICALIZED BELOW,
 THE FOLLOWING CI EXPANSION COEFFICIENTS AND THE DENSITY DO NOT
 CORRESPOND TO THE PRINTED ORBITALS.  THE PRINTED EXPANSIONS MATCH
 THE ORBITALS USED DURING THE LAST ITERATION.  IF YOU WISH TO SEE
 CI EXPANSIONS BASED ON THE CANONICAL (OR NATURAL) ORBITALS, YOU
 MUST RUN A CI CALCULATION WITH THAT ORBITAL CHOICE READ IN $VEC.

 Averaged energy =     -55.725325207

 State #    1  Energy =     -55.864126994  S =  0.500

      Det      Coef    Occupancy (Ignoring core)
      ---      ----    --------- --------- -----
        1   -0.904668  11110001110000
        2   -0.052495  11101001110000
        5    0.069548  01111001110000
        8    0.140408  10110101110000
       17    0.126872  11010011110000
       71    0.276811  11110001011000
      211   -0.051635  11110000110100
      386   -0.093118  11110001010010
      393   -0.074918  10110101010010
      701   -0.106429  11110001100001

 State #    2  Energy =     -55.727794470  S =  0.500

      Det      Coef    Occupancy (Ignoring core)
      ---      ----    --------- --------- -----
        1   -0.259317  11110001110000
       36    0.300604  11110001101000
       71   -0.869880  11110001011000
       74    0.066119  10111001011000
       75    0.062530  01111001011000
       78    0.092184  10110101011000
       87    0.094315  11010011011000
      316   -0.052328  11110000011100
      386   -0.074259  11110001010010
      806    0.085427  11110001001001

 State #    3  Energy =     -55.584054157  S =  0.500

      Det      Coef    Occupancy (Ignoring core)
      ---      ----    --------- --------- -----
        1    0.074566  11110001110000
       36    0.913494  11110001101000
       43   -0.085448  10110101101000
       52   -0.059714  11010011101000
       71    0.288720  11110001011000
      281    0.074837  11110000101100
      456    0.108489  11110001001010
      463    0.076058  10110101001010

 DENSITY MATRIX OVER ACTIVE MO-S

             1           2           3           4           5

    1    1.9746098
    2    0.0244535   1.6242799
    3    0.0003045  -0.0027356   1.6337203
    4   -0.0008508   0.0071815   0.0010633   1.6513943
    5    0.1073802  -0.0587243  -0.0005742   0.0334900   0.0330905
    6    0.0073757  -0.1644653  -0.0005931   0.0654504   0.0115679
    7   -0.0077587  -0.0042179   0.1465271  -0.0003977  -0.0023065

             6           7

    6    0.0492459
    7   -0.0021523   0.0336593

 FORMING THE "STANDARD FOCK OPERATOR" IN DIRECT AO INTEGRAL MODE...
 ONLY THE    1 CORE AND   21 VIRTUAL ORBITALS WILL BE CANONICALIZED

          ----------------------
          MCSCF NATURAL ORBITALS
          ----------------------

                      1          2          3          4          5
                  -15.9812     1.9818     1.6550     1.6482     1.6409
                     A          A          A          A          A   
    1  N  1  S    1.001118   0.009356  -0.009145   0.002060  -0.003227
    2  N  1  S   -0.001958   0.435583  -0.162947   0.078250  -0.072348
    3  N  1  S   -0.006326   0.320098  -0.261417   0.106832  -0.109991
    4  N  1  X    0.000066   0.048999  -0.114440  -0.173816   0.491583
    5  N  1  Y    0.000103  -0.005357   0.094440   0.422717   0.198823
    6  N  1  Z    0.001099   0.089190   0.579435  -0.103428   0.011485
    7  N  1  X    0.000016   0.001695  -0.093208  -0.069753   0.268591
    8  N  1  Y    0.000021  -0.003096   0.045297   0.154128   0.101620
    9  N  1  Z   -0.000504   0.013172   0.385757  -0.049759  -0.024243
   10  N  1 XX   -0.000156  -0.002217  -0.013280  -0.003604   0.014271
   11  N  1 YY    0.000317   0.002031  -0.009648   0.008472  -0.015083
   12  N  1 ZZ   -0.000161   0.000186   0.022928  -0.004868   0.000812
   13  N  1 XY   -0.000145  -0.001710  -0.000196   0.000122  -0.000709
   14  N  1 XZ    0.000164   0.002444   0.000933  -0.009710   0.022567
   15  N  1 YZ   -0.000005  -0.001633   0.003395   0.017816   0.008159
   16  H  2  S   -0.001786   0.166793   0.161041   0.339395   0.000073
   17  H  2  S    0.000588  -0.000461   0.036847   0.045147  -0.014876
   18  H  2  X   -0.000238   0.009780   0.002161   0.004862   0.021246
   19  H  2  Y    0.000932  -0.031641  -0.019117  -0.036277  -0.000446
   20  H  2  Z    0.000325  -0.003531   0.018004  -0.015224   0.000875
   21  H  3  S   -0.001535   0.165163   0.057236  -0.268652  -0.247051
   22  H  3  S    0.000411  -0.001209   0.025615  -0.037519  -0.076699
   23  H  3  X   -0.000088   0.003531  -0.000909  -0.014179   0.015431
   24  H  3  Y   -0.000802   0.029947   0.008851  -0.030584  -0.024248
   25  H  3  Z    0.000363  -0.006092   0.022303   0.006076   0.009017
   26  H  4  S   -0.001841   0.214214   0.094763  -0.189057   0.328814
   27  H  4  S    0.000277   0.008820   0.023508  -0.029373   0.093955
   28  H  4  X    0.000860  -0.033199  -0.019928   0.016331  -0.019386
   29  H  4  Y   -0.000146   0.005722   0.003072   0.019537   0.012799
   30  H  4  Z    0.000537  -0.017269   0.019574   0.007280  -0.021183

                      6          7          8
                    0.0321     0.0225     0.0194
                     A          A          A   
    1  N  1  S   -0.120383  -0.151685   0.102255
    2  N  1  S   -0.400454  -0.533849   0.315527
    3  N  1  S    0.006524  -0.199215   0.016557
    4  N  1  X    0.641149  -0.464581  -0.029391
    5  N  1  Y    0.175125   0.253654   0.882833
    6  N  1  Z   -0.170107  -0.603429   0.200052
    7  N  1  X   -0.047062  -0.075897   0.001948
    8  N  1  Y   -0.011927   0.055324   0.073792
    9  N  1  Z    0.054833   0.058726  -0.057946
   10  N  1 XX   -0.058857  -0.010497   0.007668
   11  N  1 YY    0.062781   0.007999  -0.014397
   12  N  1 ZZ   -0.003924   0.002498   0.006729
   13  N  1 XY   -0.009444  -0.029176  -0.039586
   14  N  1 XZ   -0.002349   0.045743  -0.012245
   15  N  1 YZ   -0.009925  -0.025474  -0.048777
   16  H  2  S    0.389579   0.116870  -0.743978
   17  H  2  S    0.071434  -0.011752  -0.146808
   18  H  2  X   -0.006966   0.010003  -0.023875
   19  H  2  Y   -0.039917  -0.023059   0.075058
   20  H  2  Z   -0.002672   0.008497  -0.025163
   21  H  3  S    0.616184   0.349752   0.375648
   22  H  3  S    0.156680   0.038357   0.111215
   23  H  3  X   -0.014079   0.028008   0.014110
   24  H  3  Y    0.062372   0.042075   0.029719
   25  H  3  Z   -0.000913   0.028677   0.008886
   26  H  4  S   -0.419501   0.728000  -0.109945
   27  H  4  S   -0.151333   0.133483  -0.029148
   28  H  4  X    0.009553  -0.068060   0.015436
   29  H  4  Y   -0.012860  -0.016930  -0.043915
   30  H  4  Z    0.022706   0.001515   0.002089

          ------------------------
          MCSCF OPTIMIZED ORBITALS
          ------------------------

                      1          2          3          4          5
                  -15.9812     0.0000     0.0000     0.0000     0.0000
                     A          A          A          A          A   
    1  N  1  S    1.001118  -0.002265   0.009932  -0.004252  -0.015427
    2  N  1  S   -0.001958   0.399508  -0.014999   0.003770  -0.194716
    3  N  1  S   -0.006326   0.318213  -0.100798   0.007668  -0.277990
    4  N  1  X    0.000066   0.017637   0.450010   0.034376  -0.034056
    5  N  1  Y    0.000103   0.001124   0.002088   0.390113   0.016175
    6  N  1  Z    0.001099   0.051419   0.009422   0.002201   0.580301
    7  N  1  X    0.000016  -0.018954   0.282608   0.040942  -0.071790
    8  N  1  Y    0.000021  -0.002950   0.026425   0.180095   0.016845
    9  N  1  Z   -0.000504   0.018626  -0.046231   0.009026   0.389793
   10  N  1 XX   -0.000156  -0.005408   0.021647   0.001747  -0.014560
   11  N  1 YY    0.000317   0.005456  -0.022665  -0.000875  -0.008612
   12  N  1 ZZ   -0.000161  -0.000048   0.001018  -0.000872   0.023173
   13  N  1 XY   -0.000145  -0.002751  -0.001385   0.003900  -0.000159
   14  N  1 XZ    0.000164   0.003168   0.025128   0.001514   0.003363
   15  N  1 YZ   -0.000005  -0.002380  -0.001265   0.024658   0.000348
   16  H  2  S   -0.001786   0.202238  -0.204905   0.377985   0.119089
   17  H  2  S    0.000588   0.005097  -0.047366   0.050482   0.031868
   18  H  2  X   -0.000238   0.009341   0.017681   0.015763   0.001810
   19  H  2  Y    0.000932  -0.035731   0.020372  -0.040341  -0.014511
   20  H  2  Z    0.000325  -0.003317   0.004826  -0.008189   0.020677
   21  H  3  S   -0.001535   0.199704  -0.153427  -0.387643   0.122348
   22  H  3  S    0.000411   0.006782  -0.068558  -0.075903   0.035488
   23  H  3  X   -0.000088   0.003000   0.022399  -0.007456   0.001436
   24  H  3  Y   -0.000802   0.033683  -0.013048  -0.040858   0.016171
   25  H  3  Z    0.000363  -0.005193   0.003778   0.011522   0.020754
   26  H  4  S   -0.001841   0.213266   0.431417  -0.005408   0.120377
   27  H  4  S    0.000277   0.005034   0.112127   0.021647   0.024804
   28  H  4  X    0.000860  -0.034665  -0.026023   0.002711  -0.022919
   29  H  4  Y   -0.000146   0.004992   0.003252   0.027610  -0.000327
   30  H  4  Z    0.000537  -0.015178  -0.027334  -0.000261   0.018066

                      6          7          8          9         10
                    0.0000     0.0000     0.0000     0.1478     0.2045
                     A          A          A          A          A   
    1  N  1  S    0.211796  -0.039340   0.037113  -0.131802   0.010177
    2  N  1  S    0.743505  -0.114362   0.094439  -0.199562   0.005278
    3  N  1  S    0.185982   0.102447  -0.021765   1.325250  -0.184654
    4  N  1  X    0.077186   0.837882   0.044396  -0.047606  -0.005171
    5  N  1  Y   -0.035271  -0.086486   0.969738   0.011153   0.161901
    6  N  1  Z    0.660210   0.106633   0.029651  -0.199524   0.011920
    7  N  1  X    0.072748   0.029345  -0.021598   0.192904   0.178653
    8  N  1  Y   -0.020693  -0.045041   0.094391  -0.079998  -0.808732
    9  N  1  Z   -0.080495   0.004486  -0.029238   0.441552   0.008959
   10  N  1 XX    0.036326  -0.043706  -0.009397  -0.026844   0.031022
   11  N  1 YY   -0.038402   0.050032   0.003576   0.069542  -0.050462
   12  N  1 ZZ    0.002076  -0.006326   0.005820  -0.042698   0.019440
   13  N  1 XY    0.017249   0.011277  -0.045405  -0.033762   0.014341
   14  N  1 XZ   -0.041893  -0.020919  -0.003248   0.063439   0.028803
   15  N  1 YZ    0.011663   0.010168  -0.051672  -0.021128  -0.094960
   16  H  2  S   -0.471490   0.344707  -0.553903   0.314123  -0.530148
   17  H  2  S   -0.062631   0.079832  -0.119507  -0.714392   1.891403
   18  H  2  X   -0.012411  -0.006307  -0.021180  -0.033007   0.012712
   19  H  2  Y    0.056479  -0.029523   0.053389   0.081104  -0.110578
   20  H  2  Z   -0.013267  -0.003733  -0.023724  -0.009603  -0.072985
   21  H  3  S   -0.444919   0.288204   0.545171   0.387462   0.249576
   22  H  3  S   -0.067032   0.093611   0.145991  -0.927719  -0.905828
   23  H  3  X   -0.013824  -0.025703   0.014633   0.033586   0.007389
   24  H  3  Y   -0.052372   0.026910   0.048369  -0.071011  -0.050709
   25  H  3  Z   -0.021233  -0.016666   0.014886   0.035666   0.069903
   26  H  4  S   -0.459698  -0.674096  -0.070225   0.247874   0.195129
   27  H  4  S   -0.056342  -0.183272  -0.038014  -0.796420  -0.654798
   28  H  4  X    0.056306   0.038775   0.004256   0.074766   0.017058
   29  H  4  Y    0.007414   0.003209  -0.045881  -0.068522  -0.003338
   30  H  4  Z   -0.010375   0.015112   0.008081   0.068152   0.035627

                     11         12         13         14         15
                    0.2316     0.5337     0.6045     0.6818     0.7905
                     A          A          A          A          A   
    1  N  1  S    0.029129   0.084849   0.026729   0.011606  -0.298191
    2  N  1  S    0.062493   0.116978   0.183079   0.012516  -0.694456
    3  N  1  S   -0.169650  -0.503167   0.425230  -0.054835   1.073323
    4  N  1  X   -0.005472  -0.609072  -0.303419  -0.027291  -0.005528
    5  N  1  Y    0.053233  -0.015773  -0.070180  -0.476683   0.011472
    6  N  1  Z    0.042055   0.452305  -0.519496   0.066828   0.255590
    7  N  1  X   -0.357389   1.140354   1.056960  -0.152162  -0.088129
    8  N  1  Y   -0.313817  -0.088311   0.065517   1.949695  -0.032630
    9  N  1  Z   -0.149297  -0.539345   1.019371  -0.215875  -0.246616
   10  N  1 XX   -0.068146   0.020934   0.002034  -0.023937   0.003358
   11  N  1 YY    0.078994  -0.002269  -0.036890   0.010550   0.027972
   12  N  1 ZZ   -0.010848  -0.018665   0.034856   0.013386  -0.031331
   13  N  1 XY    0.020604  -0.015794   0.066098   0.043980   0.166545
   14  N  1 XZ   -0.069531   0.021914  -0.021648   0.005963   0.047244
   15  N  1 YZ   -0.026900  -0.001357   0.008820  -0.091651   0.049712
   16  H  2  S    0.140756   0.394114  -0.358349  -0.650784  -0.079814
   17  H  2  S   -0.309551   0.407202   0.313179  -0.630462  -0.283824
   18  H  2  X    0.030366   0.006741   0.109432   0.036102   0.252754
   19  H  2  Y   -0.011798  -0.046321  -0.014068   0.213659   0.041904
   20  H  2  Z   -0.008945  -0.056214   0.073633  -0.145362   0.137796
   21  H  3  S    0.523923   0.263828  -0.180322   0.690903   0.158426
   22  H  3  S   -1.722773   0.439559   0.408876   0.579427  -0.304640
   23  H  3  X   -0.022591   0.056397  -0.144225  -0.037701  -0.380273
   24  H  3  Y   -0.054049   0.024881  -0.029043   0.237024  -0.139676
   25  H  3  Z    0.010535  -0.076001   0.002862   0.144519  -0.108906
   26  H  4  S   -0.605717  -0.084222  -0.750817   0.129067   0.178686
   27  H  4  S    2.082638  -0.675014  -0.652379   0.028777  -0.112548
   28  H  4  X   -0.085855   0.073117   0.107062  -0.114006   0.115253
   29  H  4  Y    0.002659  -0.067980   0.117249  -0.061991   0.425822
   30  H  4  Z   -0.052416   0.032665   0.088349   0.048105   0.060394

                     16         17         18         19         20
                    0.9980     1.0442     1.2031     1.3684     1.4207
                     A          A          A          A          A   
    1  N  1  S   -0.502337  -0.309181   0.005568  -0.311765  -0.319221
    2  N  1  S   -1.062873  -0.651292   0.013891  -0.664800  -0.667882
    3  N  1  S    2.086059   1.435812  -0.042233   1.094399   1.238886
    4  N  1  X   -0.075585  -0.040718  -0.016362  -0.031640   0.076128
    5  N  1  Y    0.054524  -0.080841  -0.288490   0.023724   0.003005
    6  N  1  Z    0.133858   0.060650  -0.024676  -0.041221  -0.024490
    7  N  1  X    0.439786   0.329108  -0.184815  -0.360402   0.473911
    8  N  1  Y   -0.192939   0.407554   1.108981   0.219135  -0.047470
    9  N  1  Z   -0.008925   0.437976  -0.089400   0.454667   0.636394
   10  N  1 XX   -0.136265   0.189252  -0.026222   0.122645  -0.062392
   11  N  1 YY   -0.091549  -0.062336   0.006000   0.068095   0.072704
   12  N  1 ZZ    0.227813  -0.126916   0.020222  -0.190740  -0.010312
   13  N  1 XY   -0.057949  -0.079978  -0.108530   0.068799  -0.069670
   14  N  1 XZ   -0.060844  -0.212690   0.071301   0.027707  -0.098079
   15  N  1 YZ    0.002695  -0.058470   0.112601   0.003201  -0.036353
   16  H  2  S   -0.178259  -0.358133  -0.522108  -0.385510  -0.307301
   17  H  2  S   -0.247337  -0.290750  -0.247922  -0.187317  -0.012635
   18  H  2  X   -0.042724  -0.451859  -0.213997   0.673936  -0.273955
   19  H  2  Y    0.012737   0.037320  -0.238903   0.131646  -0.052893
   20  H  2  Z    0.277740   0.031851   0.425115  -0.077915  -0.635474
   21  H  3  S   -0.383422  -0.004331   0.560383  -0.215779  -0.380625
   22  H  3  S   -0.223396  -0.048741   0.166665  -0.045552   0.082123
   23  H  3  X    0.146992  -0.127198   0.435504   0.475503  -0.010539
   24  H  3  Y    0.018406  -0.088352  -0.312978  -0.011820   0.047358
   25  H  3  Z    0.364205   0.079087  -0.399238  -0.238453  -0.586538
   26  H  4  S   -0.482308  -0.321629   0.070929  -0.230266  -0.421502
   27  H  4  S   -0.313211  -0.252570   0.055288  -0.038926  -0.339058
   28  H  4  X   -0.165119   0.415637  -0.126722   0.086398   0.048029
   29  H  4  Y   -0.155975  -0.108745   0.187137  -0.275525   0.012701
   30  H  4  Z    0.330532  -0.452628   0.012389  -0.361003   0.439538

                     21         22         23         24         25
                    1.6363     1.8037     1.8652     1.9659     2.0955
                     A          A          A          A          A   
    1  N  1  S    0.111537   0.119137   0.093033   0.145559  -0.031436
    2  N  1  S    0.200721   0.350885   0.233714   0.317646  -0.053008
    3  N  1  S   -0.636262   0.832758   0.056193  -0.095161   0.218386
    4  N  1  X    0.163067   0.098659   0.299663   0.181236  -0.037621
    5  N  1  Y    0.022728   0.079449  -0.499521   0.297026   0.054338
    6  N  1  Z    0.010549   0.198622   0.166309   0.117869   0.004775
    7  N  1  X   -0.033825  -0.100902  -0.111130  -0.180143  -0.161333
    8  N  1  Y    0.859033   0.263247  -0.303503  -0.013423  -0.003819
    9  N  1  Z   -0.286912   0.281825   0.009726  -0.089290   0.338711
   10  N  1 XX   -0.123392   0.063853  -0.108557  -0.085279  -0.737878
   11  N  1 YY    0.044039  -0.192687   0.022368   0.067883  -0.071601
   12  N  1 ZZ    0.079353   0.128833   0.086189   0.017396   0.809478
   13  N  1 XY    0.045980   0.066642  -0.073872   0.248397  -0.427666
   14  N  1 XZ   -0.074865  -0.195182  -0.154070  -0.161793   0.226931
   15  N  1 YZ   -0.087631  -0.086880   0.188875  -0.090582  -0.126620
   16  H  2  S   -0.224184  -0.195889   0.061843   0.001892  -0.111616
   17  H  2  S    0.013427  -0.410975   0.392768  -0.086688  -0.103887
   18  H  2  X    0.090010   0.004287   0.335752  -0.151602   0.139643
   19  H  2  Y   -0.317589   0.823005  -0.508252   0.361848   0.238700
   20  H  2  Z    0.535547   0.097901  -0.355396   0.213108  -0.143023
   21  H  3  S    0.320322  -0.033516  -0.042095   0.110689  -0.081302
   22  H  3  S    0.467772  -0.292853  -0.219979   0.334194  -0.001388
   23  H  3  X   -0.349801  -0.052301   0.128738   0.708084  -0.074613
   24  H  3  Y    0.448562  -0.712641  -0.459549   0.515002  -0.022447
   25  H  3  Z   -0.428458  -0.258646   0.453574   0.040067  -0.198374
   26  H  4  S    0.334719  -0.077509   0.085023   0.028966  -0.056769
   27  H  4  S   -0.217957   0.060515  -0.326192  -0.318213   0.047894
   28  H  4  X    0.265104   0.118918   0.635864   0.660692   0.343223
   29  H  4  Y   -0.604570  -0.423792  -0.100301   0.500447   0.189649
   30  H  4  Z    0.143407   0.290907   0.302040   0.220912  -0.552602

                     26         27         28         29
                    2.2780     2.5604     2.6190     3.0792
                     A          A          A          A   
    1  N  1  S   -0.089574  -0.031302  -0.152165  -0.063403
    2  N  1  S   -0.163131   0.011350  -0.157115  -0.037367
    3  N  1  S    0.472433   1.136766   2.082192   0.999351
    4  N  1  X   -0.012645   0.112125   0.279689  -0.348693
    5  N  1  Y   -0.066046   0.387655  -0.182136   0.132265
    6  N  1  Z    0.004964   0.163394   0.283291   0.039612
    7  N  1  X    0.234254   0.310638   0.788503  -0.503515
    8  N  1  Y    0.102728   1.164277  -0.721590   0.225508
    9  N  1  Z    0.321403   0.323361   0.636044   0.031642
   10  N  1 XX   -0.344225   0.122321   0.113533  -0.980221
   11  N  1 YY    0.075741   0.119608   0.328610   1.536485
   12  N  1 ZZ    0.268484  -0.241928  -0.442144  -0.556265
   13  N  1 XY    0.921393  -0.433859  -0.207237  -0.064203
   14  N  1 XZ    0.416370   0.436463   0.921145  -0.501040
   15  N  1 YZ    0.262014   1.008427  -0.703856   0.052627
   16  H  2  S   -0.112114  -1.100998  -0.094715  -1.042600
   17  H  2  S   -0.002958  -0.427034   0.091958  -0.297568
   18  H  2  X   -0.545754  -0.180481  -0.146341  -0.201793
   19  H  2  Y   -0.127177   0.867043  -0.008755   0.822042
   20  H  2  Z   -0.235730   0.063160   0.230945   0.409610
   21  H  3  S   -0.132938   0.499348  -0.880410  -0.762906
   22  H  3  S   -0.071586   0.338973  -0.215609  -0.213629
   23  H  3  X    0.112208  -0.154969  -0.091271  -0.091015
   24  H  3  Y   -0.200340   0.536752  -0.558230  -0.754006
   25  H  3  Z    0.029411   0.010399   0.242496   0.398891
   26  H  4  S   -0.200541  -0.595617  -1.266199   0.760983
   27  H  4  S   -0.069210  -0.287684  -0.488829   0.214091
   28  H  4  X    0.095124   0.429360   0.781122  -0.623322
   29  H  4  Y   -0.475000  -0.271678  -0.066400   0.074813
   30  H  4  Z   -0.276946   0.289345   0.539542  -0.411044
 .....DONE WITH MCSCF ITERATIONS.....
 CPU     0: STEP CPU TIME=    10.44 TOTAL CPU TIME=         11.6 (      0.2 MIN)
 TOTAL WALL CLOCK TIME=         11.6 SECONDS, CPU UTILIZATION IS    99.91%

     ----------------------------------------------------------------
     PROPERTY VALUES FOR THE MCSCF SELF-CONSISTENT FIELD WAVEFUNCTION
     ----------------------------------------------------------------

          -----------------
          ENERGY COMPONENTS
          -----------------

         WAVEFUNCTION NORMALIZATION =       1.0000000000

                ONE ELECTRON ENERGY =     -93.9398476733
                TWO ELECTRON ENERGY =      27.0210226527
           NUCLEAR REPULSION ENERGY =      11.1934998135
                                      ------------------
                       TOTAL ENERGY =     -55.7253252070

 ELECTRON-ELECTRON POTENTIAL ENERGY =      27.0210226527
  NUCLEUS-ELECTRON POTENTIAL ENERGY =    -149.6613069099
   NUCLEUS-NUCLEUS POTENTIAL ENERGY =      11.1934998135
                                      ------------------
             TOTAL POTENTIAL ENERGY =    -111.4467844437
               TOTAL KINETIC ENERGY =      55.7214592367
                 VIRIAL RATIO (V/T) =       2.0000693803

          ---------------------------------------
          MULLIKEN AND LOWDIN POPULATION ANALYSES
          ---------------------------------------

     ATOMIC MULLIKEN POPULATION IN EACH MOLECULAR ORBITAL

                      1          2          3          4          5

                  2.000000   1.981834   1.655015   1.648206   1.640918

    1             2.000702   1.350492   1.528654   0.900056   1.132331
    2            -0.000240   0.173677   0.075922   0.388225   0.008384
    3            -0.000165   0.173351   0.014354   0.242969   0.199390
    4            -0.000296   0.284313   0.036085   0.116956   0.300813

                      6          7          8

                  0.032086   0.022544   0.019398

    1             0.013986   0.012136   0.010522
    2             0.004045   0.000149   0.006990
    3             0.010268   0.002203   0.001690
    4             0.003786   0.008057   0.000196
 WARNING! MCSCF POPULATIONS SHOWN ABOVE ARE FOR THE NATURAL ORBITALS.
 IGNORE THE ABOVE DATA FOR MCSCF FUNCTIONS WHICH ARE NOT OF -FORS- TYPE.
 THE FOLLOWING POPULATIONS ARE CORRECT FOR ANY MCSCF WAVEFUNCTION.

               ----- POPULATIONS IN EACH AO -----
                             MULLIKEN      LOWDIN
              1  N  1  S      2.00234     1.90247
              2  N  1  S      0.82094     0.57774
              3  N  1  S      0.68916     0.41079
              4  N  1  X      0.73405     0.67585
              5  N  1  Y      0.63885     0.55664
              6  N  1  Z      0.86662     0.81431
              7  N  1  X      0.38496     0.45417
              8  N  1  Y      0.26832     0.39082
              9  N  1  Z      0.52632     0.56472
             10  N  1 XX      0.00061     0.15372
             11  N  1 YY      0.00581     0.19234
             12  N  1 ZZ      0.00018     0.14386
             13  N  1 XY      0.00586     0.00128
             14  N  1 XZ      0.00486     0.01139
             15  N  1 YZ      0.00000     0.00924
             16  H  2  S      0.56699     0.44369
             17  H  2  S      0.03436     0.14826
             18  H  2  X      0.00991     0.02191
             19  H  2  Y      0.03478     0.05906
             20  H  2  Z      0.01111     0.02952
             21  H  3  S      0.54263     0.42175
             22  H  3  S      0.04815     0.15082
             23  H  3  X      0.00925     0.02482
             24  H  3  Y      0.03225     0.05247
             25  H  3  Z      0.01178     0.02833
             26  H  4  S      0.63472     0.49059
             27  H  4  S      0.05489     0.14749
             28  H  4  X      0.02896     0.05286
             29  H  4  Y      0.01174     0.02565
             30  H  4  Z      0.01960     0.04346

          ----- MULLIKEN ATOMIC OVERLAP POPULATIONS -----
          (OFF-DIAGONAL ELEMENTS NEED TO BE MULTIPLIED BY 2)

             1           2           3           4

    1    6.0989194
    2    0.2991245   0.3691836
    3    0.2688465  -0.0057084   0.3907734
    4    0.2819893  -0.0054496  -0.0098525   0.4832238

          TOTAL MULLIKEN AND LOWDIN ATOMIC POPULATIONS
       ATOM         MULL.POP.    CHARGE          LOW.POP.     CHARGE
    1 N             6.948880    0.051120         6.859325    0.140675
    2 H             0.657150    0.342850         0.702438    0.297562
    3 H             0.644059    0.355941         0.678194    0.321806
    4 H             0.749911    0.250089         0.760044    0.239956

          MULLIKEN SPHERICAL HARMONIC POPULATIONS
       ATOM           S       P       D      F      G      H      I    TOTAL
    1 N             3.51    3.42    0.02   0.00   0.00   0.00   0.00    6.95
    2 H             0.60    0.06    0.00   0.00   0.00   0.00   0.00    0.66
    3 H             0.59    0.05    0.00   0.00   0.00   0.00   0.00    0.64
    4 H             0.69    0.06    0.00   0.00   0.00   0.00   0.00    0.75

          ---------------------
          ELECTROSTATIC MOMENTS
          ---------------------

 POINT   1           X           Y           Z (BOHR)    CHARGE
                 0.000004   -0.000001   -0.177185        1.00 (A.U.)
         DX          DY          DZ         /D/  (DEBYE)
     0.709874   -0.247384    2.137032    2.265397
 ...... END OF PROPERTY EVALUATION ......
 CPU     0: STEP CPU TIME=     0.01 TOTAL CPU TIME=         11.6 (      0.2 MIN)
 TOTAL WALL CLOCK TIME=         11.6 SECONDS, CPU UTILIZATION IS    99.91%

     -------------------------------------------------
     GMC-PT/GMC-QDPT or general MCSCF input parameters
     -------------------------------------------------
 # of frozen core orbs. =         0 ->         0
 # of doubly occ. orbs. =         1
 # of active      orbs. =         7
 # of virtual     orbs. =        21
 # of active electrons  =         7
 # of states in CI      =         3
 Highest state in CI    =         3
 kstate =  1 1 1
 avecoe =  0.333 0.333 0.333
 State symmetry           = A           
 Assigned symmetry number = 1

 <<<Act. MO sym.: 1111111

 <<<Division of 1-ext.:  0
 <<<Division of 2-ext.:  0

     ------------------------
     Orbital canonicalization
     ------------------------

 MOs are canonicalized for core, virtual, and invariant-active orbital spaces.
 This is a part of the GMC-QDPT calculation.
 SCHWARZ INEQUALITY OVERHEAD:       465 INTEGRALS, T=        0.00
 DIRECT TRANSFORMATION SKIPS AO INTEGRAL STORAGE ON DISK.

 Averaged energy =     -55.725325207

 State #    1  Energy =     -55.864126994  S =  0.500
 State #    2  Energy =     -55.727794470  S =  0.500
 State #    3  Energy =     -55.584054157  S =  0.500

 Orbital energies for filled orbital space
  -15.981234
 Orbital energies for active orbital space
   -1.502732  -0.832386  -0.975673  -0.729577   0.329413
    0.162150   0.395692
 Orbital energies for external orbital space
    0.147841   0.204539   0.231618   0.533740   0.604532
    0.681771   0.790489   0.997971   1.044202   1.203129
    1.368417   1.420732   1.636250   1.803661   1.865249
    1.965881   2.095541   2.277960   2.560361   2.618992
    3.079214

 Zero values mean non-canonical orbitals.
 ... done with orbital canonicalization ...
 CPU     0: STEP CPU TIME=     0.68 TOTAL CPU TIME=         12.3 (      0.2 MIN)
 TOTAL WALL CLOCK TIME=         12.3 SECONDS, CPU UTILIZATION IS   100.00%

     --------------------------------------------
     PARTIAL TWO ELECTRON INTEGRAL TRANSFORMATION
     --------------------------------------------

 NUMBER OF CORE MOLECULAR ORBITALS     =    0
 NUMBER OF OCCUPIED MOLECULAR ORBITALS =    8
 TOTAL NUMBER OF MOLECULAR ORBITALS    =   29
 TOTAL NUMBER OF ATOMIC ORBITALS       =   30
 THRESHOLD FOR KEEPING TRANSFORMED 2E- INTEGRALS = 1.000E-09
 AO INTEGRALS WILL BE CALCULATED IN DIRECT MODE...
 DIRECT TRANSFORMATION SKIPS AO INTEGRAL STORAGE ON DISK.
 SCHWARZ INEQUALITY OVERHEAD:       465 INTEGRALS, T=        0.00

 PLAN A: REQUIREMENTS FOR FULLY IN-MEMORY TRANSFORMATION:
 # OF WORDS AVAILABLE =            100000000
 # OF WORDS NEEDED    =               221798

 PARALLEL ONLY WORKS WITH THE SEGMENTED ALGORITHM.
 ADJUSTING MEMORY TO USE SEGMENTED ALGORITHM.


 PLAN B: REQUIREMENTS FOR THE SEGMENTED TRANSFORMATION:
       MINIMUM=         124148 WORDS FOR 1 MOLECULAR ORBITAL PER PASS
       MAXIMUM=         221798 WORDS FOR ALL MOLECULAR ORBITALS IN 1 PASS
              (          13950 EXTRA WORDS INCLUDES 1 EXTRA ORBITAL/PASS)
 THIS RUN USES=         221798 WORDS,
 DISTRIBUTING   1 PASSES EACH CONTAINING     8 ORBITALS OVER   1 PROCESSORS.

 CHOOSING SEGMENTED PARTIAL TRANSFORMATION...
 DIRECT TRANSFORMATION SKIPS AO INTEGRAL STORAGE ON DISK.
 PASS #   1 TOOK        0.04 SECONDS.
 TOTAL NUMBER OF TRANSFORMED 2E- INTEGRALS KEPT =        29226
 ... END OF INTEGRAL TRANSFORMATION ...
 CPU     0: STEP CPU TIME=     0.04 TOTAL CPU TIME=         12.4 (      0.2 MIN)
 TOTAL WALL CLOCK TIME=         12.4 SECONDS, CPU UTILIZATION IS    99.92%

     --------     ------------------------------------------
     GMC-QDPT     Program written by H.Nakano (Kyushu Univ.)
     --------     ------------------------------------------

 *** Reference space

 Reference type: ORMAS (= Occupation restricted multiple active space)
 # of orbitals          =  7
 # of minimum electrons =  7
 # of maximum electrons =  7
 State symmetry    =    1 (input)
 2*Sz              =    1 (input)
 Spin multiplicity =    2 (input)
 Dimension of reference space =      1225  (from      3432 walks)

 Dimension of reference space =      1225  (from      1225 walks)

 <<<Ionized spaces for Ref-CI:
      0:         1225 /   -1-0:         1960 /  0-1-0:         2891

 ***                    ***
 *** Reference space CI ***
 ***                    ***

 Converged after   38 iterations

 Reference wavefunctions:

 State #    1  Energy =     -55.864126994  S =  0.500

      Det      Coef    Occupancy (Ignoring core)
      ---      ----    --------- --------- -----
        1    0.973373  11110001110000
       71    0.080319  11110001011000
      393    0.059817  10110101010010
      717    0.054952  11010011100001

 State #    2  Energy =     -55.727794470  S =  0.500

      Det      Coef    Occupancy (Ignoring core)
      ---      ----    --------- --------- -----
        1    0.084437  11110001110000
       71   -0.977405  11110001011000
      822    0.056151  11010011001001

 State #    3  Energy =     -55.584054157  S =  0.500

      Det      Coef    Occupancy (Ignoring core)
      ---      ----    --------- --------- -----
       36   -0.977116  11110001101000
      249   -0.051284  10111001001100
      463   -0.060861  10110101001010

 Davidson method: CPU/Wall time =           0.48 /           0.49 sec.

 Oscillator strength (invalid if E(1)/=E(GS)):
 -----------------------------------------
   State                        f
 -----------------------------------------
     2     F(REF-CI)=        0.0022436018
     3     F(REF-CI)=        0.0034996571
 -----------------------------------------

 Dipole moment matrix elements, x, y, z, in A.U.

 Dimension of ionized spaces for PT:
 (N-2) space:         1715 /  (N-1) space:         2842 /  N space:         2891
 (N+1) space:         2842 /  (N+2) space:         1715

 <<<Ionized spaces for internal:
         0:         1225 /      -1-0:         1960 /     0-1-0:         2891
  -1-0-1-0:         2842 / 0-1-0-1-0:         3381

 Diagonal elements of averaged one-particle density matrix:
       2       3       4       5       6       7       8
  0.9933  0.9851  0.9871  0.9915  0.0128  0.0188  0.0114
  0.9884  0.6571  0.6610  0.6621  0.0100  0.0132  0.0082

 Orbital energies:
 -------- Doubly-occupied orbitals (highest several orbs.) -------
             1
 -1.598123D+01
 -------- Active orbitals ----------------------------------------
             2            3            4            5            6
 -1.502732D+00-8.323858D-01-9.756733D-01-7.295771D-01 3.294135D-01
             7            8
  1.621497D-01 3.956921D-01
 -------- External orbitals (lowest several orbs.) ---------------
             9           10           11           12           13
  1.478407D-01 2.045392D-01 2.316181D-01 5.337398D-01 6.045320D-01
            14           15           16           17           18
  6.817712D-01 7.904890D-01 9.979712D-01 1.044202D+00 1.203129D+00

 *** Quasi-degeneracy checking

 === Det (|Ci| > 1.0D-01 and dE < 5.0D-03)

 # of small denominators (single excitations)
 State       dEmin  dE < 5.0D-03  dE < 5.0D-04  dE < 5.0D-05  dE < 5.0D-06
 ----- ----------- ------------- ------------- ------------- -------------
     1    5.00D-03             0             0             0             0
     2    5.00D-03             0             0             0             0
     3    5.00D-03             0             0             0             0

 # of small denominators (double excitations)
 State       dEmin  dE < 5.0D-03  dE < 5.0D-04  dE < 5.0D-05  dE < 5.0D-06
 ----- ----------- ------------- ------------- ------------- -------------
     1    5.00D-03             0             0             0             0
     2    5.00D-03             0             0             0             0
     3    5.00D-03             0             0             0             0

 *** Zeroth-Order Setup (Granovsky's zeroth-order vectors)
 Zeroth-order effective Hamiltonian
  (= Sum_i e(i)*<I|a+(i)a(i)|J> ):
                   1            2            3
     1 -7.244375D+00
     2 -1.499358D-02-7.161769D+00
     3 -1.300258D-03 4.562116D-03-7.010318D+00

 Zeroth-order vectors:
 State #    1
       MC st            1           2           3
       Coeff    9.849D-01   1.731D-01   2.074D-03
 State #    2
       MC st            2           1           3
       Coeff   -9.844D-01   1.730D-01   3.166D-02
 State #    3
       MC st            3           2           1
       Coeff    9.995D-01   3.082D-02  -7.522D-03

 *** GMC-QDPT computation

 (Integral reading:  CPU/Wall time =           0.00 /           0.00 sec.)

 One-external:
   0 -ionized terms: CPU/Wall time =           0.03 /           0.04 sec.
 (-1)-ionized terms: CPU/Wall time =           0.09 /           0.08 sec.
 (+1)-ionized terms: CPU/Wall time =           0.02 /           0.02 sec.
 (+1)-ionized terms: CPU/Wall time =           0.01 /           0.01 sec.
 (+2)-ionized terms: CPU/Wall time =           0.00 /           0.00 sec.

 Internal:
 # of macro loops for internal contribution =         1 (input)
 Loop:    1
 Dimension of internal CISD space     =         0  (after screening)
 Space construction: CPU/Wall time =           0.02 /           0.02 sec.
 Internal terms:     CPU/Wall time =           0.00 /           0.00 sec.

 Two-external:
   0 -ionized terms: CPU/Wall time =           0.06 /           0.06 sec.
 (-1)-ionized terms: CPU/Wall time =           1.00 /           1.00 sec.
 (-2)-ionized terms: CPU/Wall time =           0.17 /           0.17 sec.

 Total time:         CPU/Wall time =           1.40 /           1.40 sec.

 ***                  ***
 *** GMC-QDPT Results ***
 ***                  ***

 Diagonal elements of effective Hamiltonian:
 Heff(  1) =   -55.95911246
 Heff(  2) =   -55.83914602
 Heff(  3) =   -55.69523672

 Off-diagonal elements of effective Hamiltonian:
                   1            2
     2 -2.064562D-02
     3  8.467906D-04 4.433985D-03

 ******** GMC-QDPT energies ********
 ----------------------------------------------------------------------------
   State                        1st order                           2nd order
 ----------------------------------------------------------------------------
     1     E(REF-CI)=      -55.8641269940   E(GMC-QDPT2)=      -55.9625752358
     2     E(REF-CI)=      -55.7277944701   E(GMC-QDPT2)=      -55.8358199034
     3     E(REF-CI)=      -55.5840541570   E(GMC-QDPT2)=      -55.6951000649
 ----------------------------------------------------------------------------

 Excitation energies (invalid if E(1)/=E(GS)):
 ----------------------------------------------------------------------------
   State                        1st order                           2nd order
 ----------------------------------------------------------------------------

     TZ Sorted GMC-PT ENERGIES:
         1      -55.9625752358
         2      -55.8358199034
         3      -55.6951000649
     2     E(REF-CI)=        3.7097988 eV   E(GMC-QDPT2)=        3.4491901 eV
     3     E(REF-CI)=        7.6211740 eV   E(GMC-QDPT2)=        7.2783739 eV
 ----------------------------------------------------------------------------

 Main characters of perturbed GMC-QDPT states:

 State #    1  Energy =     -55.962575236  S =  0.500

      Det      Coef    Occupancy (Ignoring core)
      ---      ----    --------- --------- -----
        1    0.974012  11110001110000
       71    0.072568  11110001011000
      393    0.059655  10110101010010
      717    0.054958  11010011100001

 State #    2  Energy =     -55.835819903  S =  0.500

      Det      Coef    Occupancy (Ignoring core)
      ---      ----    --------- --------- -----
        1    0.076690  11110001110000
       71   -0.978029  11110001011000
      822    0.056178  11010011001001

 State #    3  Energy =     -55.695100065  S =  0.500

      Det      Coef    Occupancy (Ignoring core)
      ---      ----    --------- --------- -----
       36   -0.977131  11110001101000
      249   -0.051266  10111001001100
      463   -0.060870  10110101001010

 <<<Max |V/de| = 2.589D-02  Thresh = 1.000D+00

 Oscillator strength (invalid if E(1)/=E(GS)):
 ----------------------------------------------------------------------------
   State                        1st order                           2nd order
 ----------------------------------------------------------------------------
     2     F(REF-CI)=        0.0022436018     F(GMC-PT2)=        0.0021680087
     3     F(REF-CI)=        0.0034996571     F(GMC-PT2)=        0.0034357648
 ----------------------------------------------------------------------------

 Dipole moment matrix elements, x, y, z, in A.U.
States    1    1        0.2819237534       -0.1092397022        0.6913372007
States    1    2       -0.0146406263        0.0185619507       -0.1584201201
States    1    3        0.0232324648       -0.1262771428       -0.0527455706
States    2    1       -0.0146406263        0.0185619507       -0.1584201201
States    2    2        0.2914331843        0.0570272309        0.3173441351
States    2    3       -0.0592629252       -0.1997346926       -0.0021034358
States    3    1        0.0232324648       -0.1262771428       -0.0527455706
States    3    2       -0.0592629252       -0.1997346926       -0.0021034358
States    3    3        0.4735048185       -0.2840793608        0.2811937876

 Oscillator strength (valid only when positive): 
 ----------------------------------------------------------------------------
  States                        1st order                           2nd order
 ----------------------------------------------------------------------------
  1  1     F(REF-CI)=        0.0000000000     F(GMC-PT2)=        0.0000000000
  1  2     F(REF-CI)=       -0.0022436018     F(GMC-PT2)=       -0.0021680087
  1  3     F(REF-CI)=       -0.0034996571     F(GMC-PT2)=       -0.0034357648
  2  1     F(REF-CI)=        0.0022436018     F(GMC-PT2)=        0.0021680087
  2  2     F(REF-CI)=        0.0000000000     F(GMC-PT2)=        0.0000000000
  2  3     F(REF-CI)=       -0.0042042534     F(GMC-PT2)=       -0.0040724759
  3  1     F(REF-CI)=        0.0034996571     F(GMC-PT2)=        0.0034357648
  3  2     F(REF-CI)=        0.0042042534     F(GMC-PT2)=        0.0040724759
  3  3     F(REF-CI)=        0.0000000000     F(GMC-PT2)=        0.0000000000
 CPU     0: STEP CPU TIME=     1.94 TOTAL CPU TIME=         14.3 (      0.2 MIN)
 TOTAL WALL CLOCK TIME=         14.3 SECONDS, CPU UTILIZATION IS    99.93%

     !!! DIABATIZATION FOR REF CI STATES !!!

 *******************************************************
          $DMO GROUP FOUND IN THE INPUT.
        DIABATIZATION OF ADIABATIC STATES BEGINS.
     PROGRAMMED BY TAO ZENG (CARLETON UNIVERSITY).
               Email: toby.zeng@carleton.ca
     See T. Zeng, J. Chem. Phys. 2017, 146, 144103
 *******************************************************

 *************************************************************************
     STEP 1: TRANSFORMATION OF ADIABATIC STATES TO THE DMO REPRESENTATION
         See Atchity and Ruedenberg, J. Chem. Phys. 1999, 111, 2910
 *************************************************************************

Read in Diabatic Molecualr Orbitals:

                      1          2          3          4          5

    1  N  1  S    0.008609   0.000000   0.000000  -0.013219   0.279491
    2  N  1  S    0.442914  -0.000000   0.000000  -0.184329   0.867803
    3  N  1  S    0.276913   0.000000  -0.000000  -0.288315   0.144236
    4  N  1  X   -0.000000   0.493155  -0.024636  -0.000000  -0.000000
    5  N  1  Y    0.000000   0.024636   0.493155  -0.000000   0.000000
    6  N  1  Z    0.090197   0.000000   0.000000   0.593421   0.705309
    7  N  1  X   -0.000000   0.210628  -0.010522   0.000000   0.000000
    8  N  1  Y    0.000000   0.010522   0.210628  -0.000000  -0.000000
    9  N  1  Z   -0.004381   0.000000   0.000000   0.381592  -0.106092
   10  N  1 XX   -0.000457   0.010719  -0.000535  -0.012387   0.006153
   11  N  1 YY   -0.000457  -0.010719   0.000535  -0.012387   0.006153
   12  N  1 ZZ    0.000914  -0.000000   0.000000   0.024773  -0.012306
   13  N  1 XY    0.000000  -0.000618  -0.012377  -0.000000   0.000000
   14  N  1 XZ   -0.000000   0.026529  -0.001325  -0.000000   0.000000
   15  N  1 YZ    0.000000   0.001325   0.026529  -0.000000   0.000000
   16  H  2  S    0.194462  -0.176074   0.343485   0.112865  -0.523343
   17  H  2  S    0.003574  -0.023812   0.046452   0.024014  -0.054445
   18  H  2  X    0.018760   0.009101   0.022834   0.009336  -0.039151
   19  H  2  Y   -0.032493   0.022287  -0.020044  -0.016171   0.067811
   20  H  2  Z   -0.009251   0.008464  -0.016511   0.018769  -0.010566
   21  H  3  S    0.194462  -0.209430  -0.324227   0.112865  -0.523343
   22  H  3  S    0.003574  -0.028322  -0.043847   0.024014  -0.054445
   23  H  3  X    0.018760   0.006781  -0.023627   0.009336  -0.039151
   24  H  3  Y    0.032493  -0.024174  -0.017723   0.016171  -0.067811
   25  H  3  Z   -0.009251   0.010067   0.015585   0.018769  -0.010566
   26  H  4  S    0.194462   0.385503  -0.019258   0.112865  -0.523343
   27  H  4  S    0.003574   0.052134  -0.002604   0.024014  -0.054445
   28  H  4  X   -0.037519  -0.032295   0.001613  -0.018672   0.078302
   29  H  4  Y    0.000000   0.001067   0.021353  -0.000000   0.000000
   30  H  4  Z   -0.009251  -0.018530   0.000926   0.018769  -0.010566

                      6          7

    1  N  1  S    0.000000  -0.000000
    2  N  1  S    0.000000  -0.000000
    3  N  1  S   -0.000000   0.000000
    4  N  1  X   -0.930415  -0.002083
    5  N  1  Y   -0.002083   0.930415
    6  N  1  Z   -0.000000   0.000000
    7  N  1  X   -0.046866  -0.000105
    8  N  1  Y   -0.000105   0.046866
    9  N  1  Z   -0.000000   0.000000
   10  N  1 XX    0.001538   0.000003
   11  N  1 YY   -0.001538  -0.000003
   12  N  1 ZZ   -0.000000   0.000000
   13  N  1 XY   -0.000004   0.001776
   14  N  1 XZ    0.039985   0.000090
   15  N  1 YZ    0.000090  -0.039985
   16  H  2  S   -0.362630  -0.631354
   17  H  2  S   -0.065964  -0.114846
   18  H  2  X    0.002763  -0.037520
   19  H  2  Y    0.037435   0.040736
   20  H  2  Z    0.001882   0.003276
   21  H  3  S   -0.365454   0.629724
   22  H  3  S   -0.066477   0.114549
   23  H  3  X    0.002595   0.037532
   24  H  3  Y   -0.037617   0.040567
   25  H  3  Z    0.001896  -0.003268
   26  H  4  S    0.728084   0.001630
   27  H  4  S    0.132441   0.000297
   28  H  4  X   -0.062317  -0.000140
   29  H  4  Y    0.000055  -0.024345
   30  H  4  Z   -0.003778  -0.000008

NUMBER OF SUB ACTIVE SPACES:   1
ROTATE ACTIVE MOS TO DMOS IN EACH SUB-SPACE

SPACE  1:

OVERLAP BETWEEN ORTHONORMAL AND PRE-ORTHONORMAL REF. DMOS

             1           2           3           4           5

    1    0.9797038   0.0335010  -0.0045478  -0.0068023   0.0041103
    2    0.0335010   0.9090842  -0.0231493   0.0402222  -0.0596806
    3   -0.0045478  -0.0231493   1.0294522  -0.0120590   0.0300543
    4   -0.0068023   0.0402222  -0.0120590   0.9956758  -0.0094359
    5    0.0041103  -0.0596806   0.0300543  -0.0094359   1.1072150
    6   -0.0005424  -0.0573584  -0.0296062   0.0403584   0.0333032
    7   -0.0017724   0.0180171  -0.0394448   0.0184312  -0.0339680

             6           7

    1   -0.0005424  -0.0017724
    2   -0.0573584   0.0180171
    3   -0.0296062  -0.0394448
    4    0.0403584   0.0184312
    5    0.0333032  -0.0339680
    6    1.0699901  -0.0021757
    7   -0.0021757   1.0276947
REFERENCE DMOS AFTER ORTHONORMALIZATION:

                      1          2          3          4          5

    1  N  1  S    0.007069   0.016142  -0.007037  -0.011434   0.253815
    2  N  1  S    0.446121   0.040773  -0.021462  -0.176432   0.784738
    3  N  1  S    0.279742   0.010939  -0.005031  -0.287429   0.127574
    4  N  1  X   -0.017610   0.491788  -0.039145   0.014583   0.052839
    5  N  1  Y    0.003094   0.024273   0.514923  -0.012338   0.015140
    6  N  1  Z    0.093188   0.008954  -0.011967   0.603777   0.644204
    7  N  1  X   -0.008071   0.231132  -0.006607  -0.007987   0.013434
    8  N  1  Y    0.000535   0.015956   0.207296   0.000583  -0.003334
    9  N  1  Z   -0.000600  -0.023596   0.005983   0.384069  -0.093883
   10  N  1 XX   -0.001025   0.012941  -0.000487  -0.013020   0.006094
   11  N  1 YY   -0.000192  -0.011056  -0.000041  -0.011889   0.004931
   12  N  1 ZZ    0.001217  -0.001885   0.000528   0.024909  -0.011026
   13  N  1 XY   -0.000021  -0.001010  -0.012018  -0.000110   0.000323
   14  N  1 XZ   -0.001088   0.031873   0.000492  -0.002867   0.000496
   15  N  1 YZ   -0.000036   0.002742   0.024456   0.000840  -0.001703
   16  H  2  S    0.210049  -0.241892   0.312275   0.148568  -0.502589
   17  H  2  S    0.005120  -0.031872   0.040261   0.030008  -0.053322
   18  H  2  X    0.019133   0.008045   0.022335   0.009615  -0.036792
   19  H  2  Y   -0.034647   0.031764  -0.018424  -0.019556   0.063619
   20  H  2  Z   -0.009621   0.007964  -0.015333   0.018109  -0.008492
   21  H  3  S    0.211519  -0.314954  -0.294090   0.123184  -0.452609
   22  H  3  S    0.005451  -0.042691  -0.039621   0.025593  -0.044917
   23  H  3  X    0.019207   0.003164  -0.020315   0.008061  -0.033669
   24  H  3  Y    0.034753  -0.036056  -0.015513   0.017953  -0.060514
   25  H  3  Z   -0.009570   0.010613   0.015762   0.018426  -0.009382
   26  H  4  S    0.186713   0.429574   0.026173   0.064440  -0.472528
   27  H  4  S    0.001951   0.061532   0.004101   0.016073  -0.049762
   28  H  4  X   -0.037616  -0.032866  -0.003253  -0.014596   0.070993
   29  H  4  Y   -0.000011   0.002082   0.019967   0.000545  -0.001151
   30  H  4  Z   -0.008512  -0.021926   0.000745   0.019802  -0.010401

                      6          7

    1  N  1  S   -0.006778   0.008039
    2  N  1  S   -0.015894   0.028299
    3  N  1  S    0.007479   0.009485
    4  N  1  X   -0.846504  -0.012489
    5  N  1  Y    0.015479   0.925440
    6  N  1  Z   -0.042608   0.009918
    7  N  1  X   -0.031722  -0.003902
    8  N  1  Y    0.006683   0.053174
    9  N  1  Z   -0.012683  -0.009376
   10  N  1 XX    0.002419   0.000196
   11  N  1 YY   -0.001735   0.000561
   12  N  1 ZZ   -0.000684  -0.000757
   13  N  1 XY   -0.000394   0.001296
   14  N  1 XZ    0.039184  -0.000304
   15  N  1 YZ    0.000851  -0.038087
   16  H  2  S   -0.334347  -0.617736
   17  H  2  S   -0.061941  -0.112070
   18  H  2  X    0.004348  -0.037139
   19  H  2  Y    0.035002   0.040842
   20  H  2  Z    0.001341   0.001841
   21  H  3  S   -0.355823   0.589430
   22  H  3  S   -0.064857   0.108618
   23  H  3  X    0.002857   0.034467
   24  H  3  Y   -0.036219   0.037172
   25  H  3  Z    0.002363  -0.003413
   26  H  4  S    0.716542  -0.019875
   27  H  4  S    0.128129  -0.002291
   28  H  4  X   -0.061765   0.002728
   29  H  4  Y    0.000684  -0.023005
   30  H  4  Z   -0.005114  -0.000320

 -------------------------------------------
       MAXIMIZING MORMO OVERLAP TERM        
 -------------------------------------------
   SWEEP    VALUE       PROGRESS
     0     5.48858
     1     6.95648     1.46790085
     2     6.96271     0.00623192
     3     6.96271     0.00000063
     4     6.96271     0.00000000
     5     6.96271     0.00000000
 THE ROTATION IS DONE
ACTIVE ORBITALS AFTER MORMO:

                      1          2          3          4          5

    1  N  1  S    0.005745   0.026234  -0.007287  -0.012184   0.212484
    2  N  1  S    0.426713   0.064619  -0.012725  -0.187961   0.734616
    3  N  1  S    0.324150  -0.062030  -0.005293  -0.273928   0.182972
    4  N  1  X   -0.000679   0.446913  -0.042901   0.038100   0.026737
    5  N  1  Y    0.005739   0.013535   0.506295  -0.010553   0.018054
    6  N  1  Z    0.083328   0.033107  -0.017555   0.601758   0.640194
    7  N  1  X   -0.027158   0.292269   0.009410  -0.054218   0.051848
    8  N  1  Y   -0.003303   0.038037   0.190240   0.011938  -0.013033
    9  N  1  Z    0.021990  -0.068599   0.018341   0.384630  -0.086617
   10  N  1 XX   -0.004711   0.025631  -0.000631  -0.014901   0.035481
   11  N  1 YY    0.004354  -0.025574   0.000278  -0.007811  -0.037319
   12  N  1 ZZ    0.000357  -0.000058   0.000353   0.022712   0.001839
   13  N  1 XY   -0.002301   0.001051  -0.002673   0.001783   0.015324
   14  N  1 XZ    0.000833   0.022033   0.001806   0.002156  -0.043518
   15  N  1 YZ   -0.002112   0.002691   0.017351   0.002066   0.010061
   16  H  2  S    0.188805  -0.197880   0.326531   0.122778  -0.483641
   17  H  2  S    0.003839  -0.047115   0.038490   0.034517  -0.064736
   18  H  2  X    0.008236   0.018676   0.012395   0.002113  -0.014504
   19  H  2  Y   -0.034081   0.019780  -0.035976  -0.014093   0.058090
   20  H  2  Z   -0.003830   0.002485  -0.010239   0.020783  -0.015038
   21  H  3  S    0.188904  -0.234643  -0.301088   0.109680  -0.434450
   22  H  3  S    0.006929  -0.085390  -0.053459   0.033574  -0.060052
   23  H  3  X    0.001904   0.020483  -0.005609   0.000300  -0.014733
   24  H  3  Y    0.032229  -0.021579  -0.032689   0.014638  -0.052391
   25  H  3  Z   -0.005669   0.001831   0.014871   0.018997  -0.020354
   26  H  4  S    0.185583   0.401648   0.003901   0.086193  -0.492003
   27  H  4  S    0.000280   0.110499   0.019458   0.017991  -0.062924
   28  H  4  X   -0.032046  -0.021741   0.000934  -0.019902   0.059432
   29  H  4  Y    0.004995   0.007325   0.021056   0.000859   0.005658
   30  H  4  Z   -0.014422  -0.029606   0.002954   0.017376  -0.007884

                      6          7

    1  N  1  S    0.032409   0.031931
    2  N  1  S    0.081387   0.067245
    3  N  1  S   -0.121365  -0.046060
    4  N  1  X   -0.843440  -0.002284
    5  N  1  Y    0.000737   0.919012
    6  N  1  Z   -0.084853   0.010211
    7  N  1  X   -0.035963  -0.022540
    8  N  1  Y    0.031372   0.076458
    9  N  1  Z    0.021482  -0.020705
   10  N  1 XX    0.042582  -0.007572
   11  N  1 YY   -0.049816   0.000851
   12  N  1 ZZ    0.007234   0.006720
   13  N  1 XY   -0.008373  -0.046791
   14  N  1 XZ    0.021685   0.000450
   15  N  1 YZ   -0.007608  -0.055214
   16  H  2  S   -0.305394  -0.603491
   17  H  2  S   -0.069961  -0.128134
   18  H  2  X    0.007270  -0.021356
   19  H  2  Y    0.025672   0.057987
   20  H  2  Z    0.007194  -0.021122
   21  H  3  S   -0.295420   0.580894
   22  H  3  S   -0.096902   0.148377
   23  H  3  X    0.025011   0.018354
   24  H  3  Y   -0.026851   0.052813
   25  H  3  Z    0.016566   0.015770
   26  H  4  S    0.686607   0.008924
   27  H  4  S    0.185848  -0.021871
   28  H  4  X   -0.040874  -0.002031
   29  H  4  Y   -0.001272  -0.049111
   30  H  4  Z   -0.014157   0.006894

Actually Used Diabatic Molecualr Orbitals:

                      1          2          3          4          5

    1  N  1  S    0.005745   0.026234  -0.007287  -0.012184   0.212484
    2  N  1  S    0.426713   0.064619  -0.012725  -0.187961   0.734616
    3  N  1  S    0.324150  -0.062030  -0.005293  -0.273928   0.182972
    4  N  1  X   -0.000679   0.446913  -0.042901   0.038100   0.026737
    5  N  1  Y    0.005739   0.013535   0.506295  -0.010553   0.018054
    6  N  1  Z    0.083328   0.033107  -0.017555   0.601758   0.640194
    7  N  1  X   -0.027158   0.292269   0.009410  -0.054218   0.051848
    8  N  1  Y   -0.003303   0.038037   0.190240   0.011938  -0.013033
    9  N  1  Z    0.021990  -0.068599   0.018341   0.384630  -0.086617
   10  N  1 XX   -0.004711   0.025631  -0.000631  -0.014901   0.035481
   11  N  1 YY    0.004354  -0.025574   0.000278  -0.007811  -0.037319
   12  N  1 ZZ    0.000357  -0.000058   0.000353   0.022712   0.001839
   13  N  1 XY   -0.002301   0.001051  -0.002673   0.001783   0.015324
   14  N  1 XZ    0.000833   0.022033   0.001806   0.002156  -0.043518
   15  N  1 YZ   -0.002112   0.002691   0.017351   0.002066   0.010061
   16  H  2  S    0.188805  -0.197880   0.326531   0.122778  -0.483641
   17  H  2  S    0.003839  -0.047115   0.038490   0.034517  -0.064736
[...]
      496    0.020642    0.020642  +2+-020

 ---------------------------------------
    -DIABATIC STATES IN PROTOTYPES-     
 ---------------------------------------

     STATE:    1
 Group Ref#    Coefficients
     1    1    0.962676
     2    2    0.005022
     3    3    0.002733

WEIGHT OF LISTED PROTOTYPES:   92.68%

     STATE:    2
 Group Ref#    Coefficients
     1    1    0.005022
     2    2    0.961871
     3    3    0.001642

WEIGHT OF LISTED PROTOTYPES:   92.52%

     STATE:    3
 Group Ref#    Coefficients
     1    1    0.002733
     2    2    0.001642
     3    3    0.955213

WEIGHT OF LISTED PROTOTYPES:   91.24%

 --------------------------------------------------
 IN DIRECT MAX. DIABATIZATION FOR GMC-QDPT

 DIRECT MAXIMIZATION (DM) WITHOUT TRUNCATING ADIABATS
 EXPANSIONS INTO THE REFERENCE CONFIGURATION SPACE
 --------------------------------------------------

 -------------------------------------------
 - DM DIABT PT HAMILTONIAN MATRIX ELEMENTS -
 -------------------------------------------
                                            
 --- DIABATIC ENERGIES (DIAGONAL ELEMENT) ---       HARTREE            EV
 STATE #  1'S GMC-PT-LEVEL DIABATIC ENERGY=     -55.946132605       0.000000000
 STATE #  2'S GMC-PT-LEVEL DIABATIC ENERGY=     -55.841077709       2.858689313
 STATE #  3'S GMC-PT-LEVEL DIABATIC ENERGY=     -55.706284891       6.526588724

 --- DIABATIC COUPLINGS (OFF DIAGONAL ELEMENTS)---  HATREE            EV
 STATE #  1 &  2'S GMC-PT-LEVEL COUPLING  =      -0.044658575      -1.215221727
 STATE #  1 &  3'S GMC-PT-LEVEL COUPLING  =       0.015415971       0.419489931
 STATE #  2 &  3'S GMC-PT-LEVEL COUPLING  =      -0.034850037      -0.948317810

 ---------------------------------------
     - ROTATION TO DIABATIC STATES -    
 ---------------------------------------
 ROWS=ADIABATIC, COLUMNS=DIABATIC STATES

             1           2           3

    1   -0.9394763  -0.3424697   0.0099413
    2    0.3259958  -0.9024587  -0.2815938
    3    0.1054090  -0.2613099   0.9594822

 ---------------------------------------
          - DIABATIC STATES -           
 ---------------------------------------

 State #    1  Energy =     -55.946132605

      Det      Coef        Coefp    Occupancy (Ignoring core)
      ---      ----        ----    --------- --------- -----
        1    0.942827   -0.942827  222+000
        8   -0.144624    0.144624  2-2+0+0
      386    0.112778   -0.112778  2+2+0-0
        4   -0.107561    0.107561  2-2++00
      176    0.103266   -0.103266  2+2+-00
        6    0.079708   -0.079708  22200+0
      393   -0.072534   -0.072534  202+020
      717   -0.064090   -0.064090  220+002
      708    0.044529   -0.044529  2-++0+-
      402    0.040653   -0.040653  2+-+0-+
        3    0.037106    0.037106  22-++00
      215   -0.036975   -0.036975  022+200
      141   -0.036506   -0.036506  22++-00
        7   -0.035260   -0.035260  22-+0+0
      705   -0.034945   -0.034945  -2+++0-
      227   -0.034512   -0.034512  +2-+-0+
      351    0.034416    0.034416  22++0-0
      218    0.032424   -0.032424  +-2+-+0
      390    0.032342   -0.032342  -+2++-0
       76    0.031846    0.031846  2+2-0+0
      212    0.029802    0.029802  +220200
      143   -0.029535   -0.029535  220+200
      113   -0.029344    0.029344  +-220+0
        5    0.027822    0.027822  -22++00
       51   -0.027210    0.027210  22+-00+
      391    0.026408   -0.026408  2+20020
      424   -0.026198   -0.026198  +-2++-0
      387   -0.024938    0.024938  2+20+-0
     1051   -0.024516   -0.024516  2+++0--
       18    0.024013   -0.024013  2-2+00+
        2    0.023996   -0.023996  2220+00
       11    0.023792   -0.023792  2-20++0
      184   -0.023672   -0.023672  -+2+-+0
      702    0.023028    0.023028  22+0+0-
      122    0.022276    0.022276  +2-200+
      773    0.022158   -0.022158  +2-++0-
      159    0.021915   -0.021915  -2++-0+
       29   -0.021339   -0.021339  2--+0++
      357   -0.021203   -0.021203  220+020
      147    0.021128   -0.021128  220+-+0
      736   -0.020346    0.020346  2+2+00-
      353   -0.020297   -0.020297  220++-0
      742   -0.020149   -0.020149  2+-+0+-

 State #    2  Energy =     -55.841077709

      Det      Coef        Coefp    Occupancy (Ignoring core)
      ---      ----        ----    --------- --------- -----
       71   -0.943458    0.943458  2+22000
       74    0.139462   -0.139462  2022+00
       76    0.114699    0.114699  2+2-0+0
      386   -0.100725    0.100725  2+2+0-0
       78    0.099925   -0.099925  20220+0
      106    0.078470    0.078470  +222000
      822    0.061623   -0.061623  2+02002
      813    0.048084   -0.048084  20+20+-
       36    0.044787    0.044787  22+2000
      113    0.043390   -0.043390  +-220+0
      456    0.043349    0.043349  2++20-0
       73    0.041179   -0.041179  2+-2+00
       77   -0.039956    0.039956  2+-20+0
       81    0.038276    0.038276  202-++0
      323   -0.038226    0.038226  +022-+0
      246   -0.036996   -0.036996  2++2-00
      320    0.036058    0.036058  0+22200
      810   -0.035500   -0.035500  -++2+0-
      806    0.033136    0.033136  2++200-
      332   -0.032564    0.032564  ++-2-0+
       99   -0.032418    0.032418  20-20++
      180   -0.031999    0.031999  -+2+200
      393   -0.031704   -0.031704  202+020
      183   -0.031655    0.031655  202+-+0
      317    0.031270   -0.031270  ++2-200
      177    0.030577   -0.030577  2+20200
      248    0.029415   -0.029415  2+02200
       38   -0.028412    0.028412  2202+00
       87   -0.028345    0.028345  2+-200+
       75   -0.027718   -0.027718  -+22+00
       42   -0.026898    0.026898  22020+0
      529    0.025350    0.025350  +022+-0
      736   -0.025179    0.025179  2+2+00-
       86    0.024802    0.024802  2+2-00+
      111    0.024352   -0.024352  +22-0+0
      807   -0.023670    0.023670  2++-+0-
      192   -0.022573    0.022573  2+-+-0+
       79   -0.022502   -0.022502  -+220+0
        6    0.022440   -0.022440  22200+0
      252   -0.021932   -0.021932  2+02-+0
      534    0.021878    0.021878  0+22020
      109    0.021588   -0.021588  +-22+00
       88   -0.021428    0.021428  202200+
      526   -0.020887   -0.020887  ++220-0
      878    0.020793    0.020793  ++-2+0-
      264    0.020498   -0.020498  -++2-0+
      751    0.020318   -0.020318  2+20002

 State #    3  Energy =     -55.706284891

      Det      Coef        Coefp    Occupancy (Ignoring core)
      ---      ----        ----    --------- --------- -----
       36   -0.944054   -0.944054  22+2000
      246   -0.118966   -0.118966  2++2-00
      456   -0.112849   -0.112849  2++20-0
       43    0.094864    0.094864  2-+20+0
      351   -0.085117   -0.085117  22++0-0
       39    0.084973    0.084973  2-+2+00
      463    0.077986   -0.077986  20+2020
       41    0.069619   -0.069619  22+-0+0
       52    0.055769   -0.055769  220200+
      472   -0.048590   -0.048590  2+020-+
       71   -0.046290    0.046290  2+22000
      112   -0.041281   -0.041281  +2-20+0
      121   -0.041272    0.041272  +22-00+
      285    0.038006   -0.038006  02+2200
       42    0.036760   -0.036760  22020+0
      281    0.036057   -0.036057  +2+2-00
      460   -0.035225   -0.035225  -++2+-0
      297    0.034727   -0.034727  +202-0+
       73    0.033993   -0.033993  2+-2+00
       38   -0.033204    0.033204  2202+00
       64    0.032417   -0.032417  2-020++
      288   -0.032281   -0.032281  +-+2-+0
      282    0.031868    0.031868  +2+-200
      145   -0.031165   -0.031165  -2++200
      142    0.030873    0.030873  22+0200
      457   -0.030248    0.030248  2++-+-0
      461    0.030183   -0.030183  2++-020
      358   -0.029670    0.029670  2-++020
      148   -0.029289   -0.029289  2-++-+0
       16   -0.029065    0.029065  222000+
       46    0.028720   -0.028720  2-+-++0
      108   -0.028121   -0.028121  +2-2+00
      561    0.027988    0.027988  2+++--0
      254    0.027015   -0.027015  -++2-+0
      491    0.025033   -0.025033  +2+20-0
       51    0.024174   -0.024174  22+-00+
      157    0.023843   -0.023843  220+-0+
      494    0.023783   -0.023783  +-+2+-0
      806    0.023226    0.023226  2++200-
      771    0.022850    0.022850  +22+00-
      716    0.022394    0.022394  22+0002
      701   -0.022204   -0.022204  22++00-
        3    0.021159    0.021159  22-++00
       37   -0.021089    0.021089  22+-+00
       53   -0.020162   -0.020162  2-+200+

 ---------------------------------------
      - DIABATIC STATES IN CMO -        
 ---------------------------------------

 State #    1  Energy =     -55.946132605

      Det      Coef        Coefp    Occupancy (Ignoring core)
      ---      ----        ----    --------- --------- -----
        1    0.890289   -0.890289  222+000
       71    0.384885   -0.384885  2+22000
       36   -0.108457   -0.108457  22+2000
      393   -0.062759   -0.062759  202+020
      717   -0.052023   -0.052023  220+002
      179   -0.042338   -0.042338  202+200
      391   -0.036579    0.036579  2+20020
      357   -0.036040   -0.036040  220+020
       17    0.035475    0.035475  22-+00+
      402    0.032224   -0.032224  2+-+0-+
        4    0.032031   -0.032031  2-2++00
      389    0.031990    0.031990  202++-0
      106   -0.031725   -0.031725  +222000
        6    0.031077   -0.031077  22200+0
      394    0.028837   -0.028837  -+2+020
      215   -0.027642   -0.027642  022+200
      388    0.025852    0.025852  2+-++-0
      183   -0.024160    0.024160  202+-+0
      822   -0.023883    0.023883  2+02002
      113   -0.023505    0.023505  +-220+0
        3   -0.023236   -0.023236  22-++00
      706    0.022877    0.022877  22+00+-
      214    0.022076    0.022076  +-2+200
      428   -0.021480   -0.021480  +-2+020
      437   -0.021396   -0.021396  +2-+0-+
      366   -0.021213    0.021213  22+00-+
       51   -0.021200    0.021200  22+-00+
      709   -0.020882   -0.020882  -2++0+-
      708    0.020806   -0.020806  2-++0+-
       72   -0.020674   -0.020674  2+2-+00
       78   -0.020583    0.020583  20220+0
      426    0.020531    0.020531  +220020
      180   -0.020332    0.020332  -+2+200
      429   -0.020236   -0.020236  022+020

 State #    2  Energy =     -55.841077709

      Det      Coef        Coefp    Occupancy (Ignoring core)
      ---      ----        ----    --------- --------- -----
       71   -0.852514    0.852514  2+22000
        1    0.402213   -0.402213  222+000
       36    0.273090    0.273090  22+2000
      822    0.052638   -0.052638  2+02002
      113    0.043178   -0.043178  +-220+0
      462    0.041134   -0.041134  2+02020
        6    0.031489   -0.031489  22200+0
      179   -0.029385   -0.029385  202+200
       42   -0.028404    0.028404  22020+0
      320    0.027797    0.027797  0+22200
      183   -0.026266    0.026266  202+-+0
      811   -0.026176    0.026176  2++-0+-
      813    0.025518   -0.025518  20+20+-
      463   -0.024365    0.024365  20+2020
      177    0.024110   -0.024110  2+20200
      107   -0.023415    0.023415  +22-+00
      109   -0.023253    0.023253  +-22+00
       79   -0.022835   -0.022835  -+220+0
       74    0.021617   -0.021617  2022+00
      534    0.020941    0.020941  0+22020
      526   -0.020343   -0.020343  ++220-0
      751    0.020302   -0.020302  2+20002
       93    0.020015   -0.020015  20-2+0+

 State #    3  Energy =     -55.706284891

      Det      Coef        Coefp    Occupancy (Ignoring core)
      ---      ----        ----    --------- --------- -----
       36   -0.932105   -0.932105  22+2000
       71   -0.295459    0.295459  2+22000
      463    0.055692   -0.055692  20+2020
      249    0.055180   -0.055180  20+2200
      112   -0.044965   -0.044965  +2-20+0
      253    0.039785    0.039785  20+2-+0
      121   -0.037582    0.037582  +22-00+
        7    0.036634    0.036634  22-+0+0
      356    0.034686    0.034686  22+0020
      459   -0.032130    0.032130  20+2+-0
       41   -0.031299    0.031299  22+-0+0
      285    0.028637   -0.028637  02+2200
      250    0.027534    0.027534  -++2200
      248    0.027429   -0.027429  2+02200
      367    0.024454   -0.024454  220+0-+
      472   -0.024306   -0.024306  2+020-+
      358    0.024203   -0.024203  2-++020
      498    0.023922   -0.023922  +-+2020
       77    0.023889   -0.023889  2+-20+0
       44    0.023872   -0.023872  -2+20+0
      499    0.023846   -0.023846  02+2020
       52    0.023575   -0.023575  220200+
      716    0.023294    0.023294  22+0002
      284   -0.023136    0.023136  +-+2200
      464   -0.022778   -0.022778  -++2020
      771    0.022380    0.022380  +22+00-
      461   -0.021905    0.021905  2++-020
       86    0.021740    0.021740  2+2-00+
      359   -0.021681   -0.021681  -2++020
      491    0.021092   -0.021092  +2+20-0
      496    0.020642    0.020642  +2+-020

 ---------------------------------------
    -DIABATIC STATES IN PROTOTYPES-     
 ---------------------------------------

     STATE:    1
 Group Ref#    Coefficients
     1    1    0.962676
     2    2    0.005020
     3    3    0.002723

WEIGHT OF LISTED PROTOTYPES:   92.68%

     STATE:    2
 Group Ref#    Coefficients
     1    1    0.005024
     2    2    0.961871
     3    3    0.001636

WEIGHT OF LISTED PROTOTYPES:   92.52%

     STATE:    3
 Group Ref#    Coefficients
     1    1    0.002744
     2    2    0.001647
     3    3    0.955213

WEIGHT OF LISTED PROTOTYPES:   91.24%

     DIRECT MAX. DIABATIZATION FINISHED    
 CPU     0: STEP CPU TIME=     0.25 TOTAL CPU TIME=         14.5 (      0.2 MIN)
 TOTAL WALL CLOCK TIME=         14.6 SECONDS, CPU UTILIZATION IS    99.93%

DIABATS FOR SPIN-ORBIT CALCULATION ARE READY

TRANSITION DIPOLES BETWEEN ADIABATS (in A.U.):

STATE PAIR      X         Y         Z
    1    1  0.281924 -0.109240  0.691337
    2    1 -0.014641  0.018562 -0.158420
    2    2  0.291433  0.057027  0.317344
    3    1  0.023232 -0.126277 -0.052746
    3    2 -0.059263 -0.199735 -0.002103
    3    3  0.473505 -0.284079  0.281194


TRANSITION DIPOLES BETWEEN DIABATS (in A.U.):

STATE PAIR      X         Y         Z
    1    1  0.285356 -0.093598  0.754374
    2    1 -0.003303 -0.020858 -0.005969
    2    2  0.269908 -0.091093  0.250383
    3    1 -0.023110  0.029174 -0.002683
    3    2 -0.007636  0.287786  0.013070
    3    3  0.491598 -0.151601  0.285118

TRANSITION DIPOLES BETWEEN DIRECT MAX. DIABATS (in A.U.):

STATE PAIR      X         Y         Z
    1    1  0.285357 -0.093599  0.754374
    2    1 -0.003302 -0.020861 -0.005968
    2    2  0.269908 -0.091096  0.250383
    3    1 -0.023113  0.029174 -0.002678
    3    2 -0.007637  0.287786  0.013070
    3    3  0.491597 -0.151597  0.285118
 No $TRANST Group Found.
 Quit without doing spin-orbit coupling
 ..... DONE WITH MP2 ENERGY .....
 CPU     0: STEP CPU TIME=     0.00 TOTAL CPU TIME=         14.5 (      0.2 MIN)
 TOTAL WALL CLOCK TIME=         14.6 SECONDS, CPU UTILIZATION IS    99.86%
            100000000  WORDS OF DYNAMIC MEMORY USED
 EXECUTION OF GAMESS TERMINATED NORMALLY Wed Nov 16 19:11:03 2022
 DDI: 715512 bytes (0.7 MB / 0 MWords) used by master data server.

 ----------------------------------------
 CPU timing information for all processes
 ========================================
 0: 14.209 + 0.348 = 14.557
 ----------------------------------------
Note: The following floating-point exceptions are signalling: IEEE_DENORMAL
 ddikick.x: exited gracefully.
unset echo
----- accounting info -----
Files used on the master node io002 were:
-rw-r--r-- 1 bsonghao nooijen   20747 Nov 16 19:10 /scratch/bsonghao/nh3_diabatization_2d_at_mode_7_8_dist-0.2_0.6.F05
-rw-r--r-- 1 bsonghao nooijen  363520 Nov 16 19:11 /scratch/bsonghao/nh3_diabatization_2d_at_mode_7_8_dist-0.2_0.6.F09
-rw-r--r-- 1 bsonghao nooijen 1995920 Nov 16 19:11 /scratch/bsonghao/nh3_diabatization_2d_at_mode_7_8_dist-0.2_0.6.F10
-rw-r--r-- 1 bsonghao nooijen  131264 Nov 16 19:11 /scratch/bsonghao/nh3_diabatization_2d_at_mode_7_8_dist-0.2_0.6.F13
-rw-r--r-- 1 bsonghao nooijen  180312 Nov 16 19:11 /scratch/bsonghao/nh3_diabatization_2d_at_mode_7_8_dist-0.2_0.6.F15
-rw-r--r-- 1 bsonghao nooijen       0 Nov 16 19:10 /scratch/bsonghao/nh3_diabatization_2d_at_mode_7_8_dist-0.2_0.6.F16
-rw-r--r-- 1 bsonghao nooijen    9808 Nov 16 19:11 /scratch/bsonghao/nh3_diabatization_2d_at_mode_7_8_dist-0.2_0.6.F70
-rw-r--r-- 1 bsonghao nooijen    9808 Nov 16 19:11 /scratch/bsonghao/nh3_diabatization_2d_at_mode_7_8_dist-0.2_0.6.F71
-rw-r--r-- 1 bsonghao nooijen   19608 Nov 16 19:11 /scratch/bsonghao/nh3_diabatization_2d_at_mode_7_8_dist-0.2_0.6.F72
-rw-r--r-- 1 bsonghao nooijen   19608 Nov 16 19:11 /scratch/bsonghao/nh3_diabatization_2d_at_mode_7_8_dist-0.2_0.6.F73
-rw-r--r-- 1 bsonghao nooijen 1920824 Nov 16 19:11 /scratch/bsonghao/nh3_diabatization_2d_at_mode_7_8_dist-0.2_0.6.F74
-rw-r--r-- 1 bsonghao nooijen       0 Nov 16 19:10 /scratch/bsonghao/nh3_diabatization_2d_at_mode_7_8_dist-0.2_0.6.F75
-rw-r--r-- 1 bsonghao nooijen   58848 Nov 16 19:11 /scratch/bsonghao/nh3_diabatization_2d_at_mode_7_8_dist-0.2_0.6.F76
-rw-r--r-- 1 bsonghao nooijen       0 Nov 16 19:10 /scratch/bsonghao/nh3_diabatization_2d_at_mode_7_8_dist-0.2_0.6.F77
-rw-r--r-- 1 bsonghao nooijen    1864 Nov 16 19:11 /scratch/bsonghao/nh3_diabatization_2d_at_mode_7_8_dist-0.2_0.6.F78
-rw-r--r-- 1 bsonghao nooijen   39208 Nov 16 19:11 /scratch/bsonghao/nh3_diabatization_2d_at_mode_7_8_dist-0.2_0.6.F79
-rw-r--r-- 1 bsonghao nooijen     104 Nov 16 19:11 /scratch/bsonghao/nh3_diabatization_2d_at_mode_7_8_dist-0.2_0.6.F80
-rw-r--r-- 1 bsonghao nooijen   13472 Nov 16 19:11 /scratch/bsonghao/nh3_diabatization_2d_at_mode_7_8_dist-0.2_0.6.F81
-rw-r--r-- 1 bsonghao nooijen      16 Nov 16 19:11 /scratch/bsonghao/nh3_diabatization_2d_at_mode_7_8_dist-0.2_0.6.F82
-rw-r--r-- 1 bsonghao nooijen   19216 Nov 16 19:11 /scratch/bsonghao/nh3_diabatization_2d_at_mode_7_8_dist-0.2_0.6.F83
-rw-r--r-- 1 bsonghao nooijen   29712 Nov 16 19:11 /scratch/bsonghao/nh3_diabatization_2d_at_mode_7_8_dist-0.2_0.6.F84
-rw-r--r-- 1 bsonghao nooijen  401576 Nov 16 19:11 /scratch/bsonghao/nh3_diabatization_2d_at_mode_7_8_dist-0.2_0.6.F85
-rw-r--r-- 1 bsonghao nooijen  903672 Nov 16 19:11 /scratch/bsonghao/nh3_diabatization_2d_at_mode_7_8_dist-0.2_0.6.F86
-rw-r--r-- 1 bsonghao nooijen     656 Nov 16 19:11 /scratch/bsonghao/nh3_diabatization_2d_at_mode_7_8_dist-0.2_0.6.F87
-rw-r--r-- 1 bsonghao nooijen   38928 Nov 16 19:11 /scratch/bsonghao/nh3_diabatization_2d_at_mode_7_8_dist-0.2_0.6.F88
-rw-r--r-- 1 bsonghao nooijen     240 Nov 16 19:11 /scratch/bsonghao/nh3_diabatization_2d_at_mode_7_8_dist-0.2_0.6.F89
-rw-r--r-- 1 bsonghao nooijen       0 Nov 16 19:10 /scratch/bsonghao/nh3_diabatization_2d_at_mode_7_8_dist-0.2_0.6.F90
-rw-r--r-- 1 bsonghao nooijen   13760 Nov 16 19:11 /scratch/bsonghao/nh3_diabatization_2d_at_mode_7_8_dist-0.2_0.6.F91
-rw-r--r-- 1 bsonghao nooijen   22776 Nov 16 19:11 /scratch/bsonghao/nh3_diabatization_2d_at_mode_7_8_dist-0.2_0.6.F92
-rw-r--r-- 1 bsonghao nooijen   23168 Nov 16 19:11 /scratch/bsonghao/nh3_diabatization_2d_at_mode_7_8_dist-0.2_0.6.F93
-rw-r--r-- 1 bsonghao nooijen   22776 Nov 16 19:11 /scratch/bsonghao/nh3_diabatization_2d_at_mode_7_8_dist-0.2_0.6.F94
-rw-r--r-- 1 bsonghao nooijen   13760 Nov 16 19:11 /scratch/bsonghao/nh3_diabatization_2d_at_mode_7_8_dist-0.2_0.6.F95
-rw-r--r-- 1 bsonghao nooijen   29440 Nov 16 19:11 /scratch/bsonghao/nh3_diabatization_2d_at_mode_7_8_dist-0.2_0.6.F96
-rw-r--r-- 1 bsonghao nooijen    1184 Nov 16 19:11 /scratch/bsonghao/nh3_diabatization_2d_at_mode_7_8_dist-0.2_0.6.F97
-rw-r--r-- 1 bsonghao nooijen    9808 Nov 16 19:11 /scratch/bsonghao/nh3_diabatization_2d_at_mode_7_8_dist-0.2_0.6.F98
-rw-r--r-- 1 bsonghao nooijen   30264 Nov 16 19:11 /scratch/bsonghao/nh3_diabatization_2d_at_mode_7_8_dist-0.2_0.6.F99
ls: No match.
ls: No match.
ls: No match.
Wed 16 Nov 2022 07:11:07 PM EST
0.293u 0.036s 0:17.93 1.7%	0+0k 48+224io 0pf+0w
