----- GAMESS execution script 'rungms' -----
This job is running on host io002
under operating system Linux at Wed 16 Nov 2022 07:48:18 PM EST
Available scratch disk space (Kbyte units) at beginning of the job is
Filesystem       1K-blocks       Used   Available Use% Mounted on
/dev/sdc1      15378471580 3278917120 11318349060  23% /scratch
GAMESS temporary binary files will be written to /scratch/bsonghao
GAMESS supplementary output files will be written to /home/bsonghao/.gamess_ascii_files/267638
Copying input file nh3_diabatization_2d_at_mode_7_8_dist0.3_0.6.inp to your run's scratch directory...
cp nh3_diabatization_2d_at_mode_7_8_dist0.3_0.6.inp /scratch/bsonghao/nh3_diabatization_2d_at_mode_7_8_dist0.3_0.6.F05
unset echo
/home/bjb2chen/gamess/ddikick.x /home/bjb2chen/gamess/gamess.00.x nh3_diabatization_2d_at_mode_7_8_dist0.3_0.6 -ddi 1 1 io002 -scr /scratch/bsonghao

 Distributed Data Interface kickoff program.
 Initiating 1 compute processes on 1 nodes to run the following command:
 /home/bjb2chen/gamess/gamess.00.x nh3_diabatization_2d_at_mode_7_8_dist0.3_0.6 

          ******************************************************
          *         GAMESS VERSION = 02 AUG 2018 (R2)         *
          *             FROM IOWA STATE UNIVERSITY             *
          * M.W.SCHMIDT, K.K.BALDRIDGE, J.A.BOATZ, S.T.ELBERT, *
          *   M.S.GORDON, J.H.JENSEN, S.KOSEKI, N.MATSUNAGA,   *
          *          K.A.NGUYEN, S.J.SU, T.L.WINDUS,           *
          *       TOGETHER WITH M.DUPUIS, J.A.MONTGOMERY       *
          *         J.COMPUT.CHEM.  14, 1347-1363(1993)        *
          **************** 64 BIT LINUX VERSION ****************

  SINCE 1993, STUDENTS AND POSTDOCS WORKING AT IOWA STATE UNIVERSITY
  AND ALSO IN THEIR VARIOUS JOBS AFTER LEAVING ISU HAVE MADE IMPORTANT
  CONTRIBUTIONS TO THE CODE:
     IVANA ADAMOVIC, CHRISTINE AIKENS, YURI ALEXEEV, POOJA ARORA,
     ANDREY ASADCHEV, ROB BELL, PRADIPTA BANDYOPADHYAY, JONATHAN BENTZ,
     BRETT BODE, KURT BRORSEN, CALEB CARLIN, GALINA CHABAN, WEI CHEN,
     CHEOL HO CHOI, PAUL DAY, ALBERT DEFUSCO, NUWAN DESILVA, TIM DUDLEY,
     DMITRI FEDOROV, ALEX FINDLATER, GRAHAM FLETCHER, MARK FREITAG,
     KURT GLAESEMANN, ANASTASIA GUININA,
     DAN KEMP, GRANT MERRILL, NORIYUKI MINEZAWA, JONATHAN MULLIN,
     TAKESHI NAGATA, SEAN NEDD, HEATHER NETZLOFF, BOSILJKA NJEGIC, RYAN OLSON,
     MIKE PAK, BUU PHAM,
     SPENCER PRUITT, LUKE ROSKOP, JIM SHOEMAKER, LYUDMILA SLIPCHENKO,
     TONY SMITH, SAROM SOK LEANG, JIE SONG, TETSUYA TAKETSUGU, SIMON WEBB,
     PENG XU, SOOHAENG YOO, FEDERICO ZAHARIEV

  ADDITIONAL CODE HAS BEEN PROVIDED BY COLLABORATORS IN OTHER GROUPS:
     IOWA STATE UNIVERSITY:
          JOE IVANIC, AARON WEST, LAIMUTIS BYTAUTAS, KLAUS RUEDENBERG
     UNIVERSITY OF TOKYO: KIMIHIKO HIRAO, TAKAHITO NAKAJIMA,
          TAKAO TSUNEDA, MUNEAKI KAMIYA, SUSUMU YANAGISAWA,
          KIYOSHI YAGI, MAHITO CHIBA, SEIKEN TOKURA, NAOAKI KAWAKAMI
     UNIVERSITY OF AARHUS: FRANK JENSEN
     UNIVERSITY OF IOWA: VISVALDAS KAIRYS, HUI LI
     NATIONAL INST. OF STANDARDS AND TECHNOLOGY: WALT STEVENS, DAVID GARMER
     UNIVERSITY OF PISA: BENEDETTA MENNUCCI, JACOPO TOMASI
     UNIVERSITY OF MEMPHIS: HENRY KURTZ, PRAKASHAN KORAMBATH
     UNIVERSITY OF ALBERTA: TOBY ZENG, MARIUSZ KLOBUKOWSKI
     UNIVERSITY OF NEW ENGLAND: MARK SPACKMAN
     MIE UNIVERSITY: HIROAKI UMEDA
     NAT. INST. OF ADVANCED INDUSTRIAL SCIENCE AND TECHNOLOGY: KAZUO KITAURA
     MICHIGAN STATE UNIVERSITY:
          KAROL KOWALSKI, MARTA WLOCH, JEFFREY GOUR, JESSE LUTZ,
          WEI LI, JUN SHEN, J. EMILIANO DEUSTUA, PIOTR PIECUCH
     UNIVERSITY OF MINNESOTA:
          YINAN SHU
     UNIVERSITY OF SILESIA: MONIKA MUSIAL, STANISLAW KUCHARSKI
     FACULTES UNIVERSITAIRES NOTRE-DAME DE LA PAIX:
          OLIVIER QUINET, BENOIT CHAMPAGNE
     UNIVERSITY OF CALIFORNIA - SANTA BARBARA: BERNARD KIRTMAN
     INSTITUTE FOR MOLECULAR SCIENCE:
          KAZUYA ISHIMURA, MICHIO KATOUDA, AND SHIGERU NAGASE
     UNIVERSITY OF NOTRE DAME: ANNA POMOGAEVA, DAN CHIPMAN
     KYUSHU UNIVERSITY:
          HARUYUKI NAKANO,
          FENG LONG GU, JACEK KORCHOWIEC, MARCIN MAKOWSKI, AND YURIKO AOKI,
          HIROTOSHI MORI AND EISAKU MIYOSHI
     PENNSYLVANIA STATE UNIVERSITY:
          TZVETELIN IORDANOV, CHET SWALINA, JONATHAN SKONE,
          SHARON HAMMES-SCHIFFER
     WASEDA UNIVERSITY:
          MASATO KOBAYASHI, TOMOKO AKAMA, TSUGUKI TOUMA,
          TAKESHI YOSHIKAWA, YASUHIRO IKABATA, JUNJI SEINO,
          YUYA NAKAJIMA, HIROMI NAKAI
     NANJING UNIVERSITY: SHUHUA LI
     UNIVERSITY OF NEBRASKA:
          PEIFENG SU, DEJUN SI, NANDUN THELLAMUREGE, YALI WANG, HUI LI
     UNIVERSITY OF ZURICH: ROBERTO PEVERATI, KIM BALDRIDGE
     N. COPERNICUS UNIVERSITY AND JACKSON STATE UNIVERSITY:
          MARIA BARYSZ
     UNIVERSITY OF COPENHAGEN: Jimmy Kromann, CASPER STEINMANN
     TOKYO INSTITUTE OF TECHNOLOGY: HIROYA NAKATA
     NAGOYA UNIVERSITY: YOSHIO NISHIMOTO, STEPHAN IRLE
     MOSCOW STATE UNIVERSITY: VLADIMIR MIRONOV

 EXECUTION OF GAMESS BEGUN Wed Nov 16 19:48:19 2022

            ECHO OF THE FIRST FEW INPUT CARDS -
 INPUT CARD> $system kdiag=3 mwords=100 memddi=1000 parall=.t. $end                         
 INPUT CARD> $contrl runtyp=energy ispher=1 $end                                            
 INPUT CARD> $contrl icut=9 itol=20 inttyp=rysquad qmttol=1.0d-05 nosym=1 $end              
 INPUT CARD> $scf    npunch=2 conv=1.0d-06 dirscf=.t.      $end                             
 INPUT CARD> $contrl scftyp=mcscf  mult=2 maxit=200 icharg=1 mplevl=2 $end                  
 INPUT CARD> $guess  guess=moread norb=29 purify=.t. $end                                   
 INPUT CARD> $basis  gbasis=ccd $end                                                        
 INPUT CARD> $mcscf  cistep=gmcci fullnr=.t. finci=mos                                      
 INPUT CARD>         acurcy=1.d-6 maxit=100 $end                                            
 INPUT CARD> $trans  dirtrf=.t. $end                                                        
 INPUT CARD> $mrmp   mrpt=gmcpt rdvecs=.f. $end                                             
 INPUT CARD> $gmcpt  nmofzc=0 nmodoc=1 nmoact=7 nelact=7 stsym(1)=A                         
 INPUT CARD>         reftyp=ormas nspace=1 mstart(1)=2 mine(1)=7 maxe(1)=7                  
 INPUT CARD>         kstate(1)=1,1,1                                                        
 INPUT CARD>         wstate(1)=1,1,1                                                        
 INPUT CARD>         iwgt=0 thrwgt=-1.0 krot=.f. kszdoe=.f. knospn=.f.                      
 INPUT CARD>         thrde=-1.0 edshft=0.02 $end                                            
 INPUT CARD> $data                                                                          
 INPUT CARD> NH3+ 3 states calculation at NH3 structure.                                    
 INPUT CARD> c1                                                                             
 INPUT CARD>N 7.0 -0.03737350800000001 -0.018686709000000003 -0.1693810082                  
 INPUT CARD>H 1.0 -0.04520920899999997 1.0556108938 0.24585182010000003                     
 INPUT CARD>H 1.0 -0.274485172 -1.0148799778000002 0.10868738309999998                      
 INPUT CARD>H 1.0 0.839009288 0.21892724400000002 0.4148464431000001                        
 INPUT CARD>$end                                                                            
 INPUT CARD>--- OPTIMIZED RHF      MO-S --- GENERATED AT Mon Nov 14 16:47:08 2022           
 INPUT CARD>E=      -56.3825050291, E(NUC)=   11.8429239490                                 
 INPUT CARD> $VEC                                                                           
 INPUT CARD> 1  1-1.00134066E+00-2.25158504E-03 3.44925845E-03 0.00000000E+00 0.00000000E+00
 INPUT CARD> 1  2-2.13170927E-03 0.00000000E+00 0.00000000E+00 6.57129898E-04-6.87950443E-05
 INPUT CARD> 1  3-6.87950443E-05 1.37590089E-04 0.00000000E+00 0.00000000E+00 0.00000000E+00
 INPUT CARD> 1  4 3.25502815E-04-4.84772356E-04 3.62525460E-04-6.27912517E-04-3.45956485E-04
 INPUT CARD> 1  5 3.25502815E-04-4.84772356E-04 3.62525460E-04 6.27912517E-04-3.45956485E-04
 INPUT CARD> 1  6 3.25502815E-04-4.84772356E-04-7.25050921E-04 0.00000000E+00-3.45956485E-04
 INPUT CARD> 2  1 1.31286642E-02-4.05911371E-01-2.82090992E-01 0.00000000E+00 0.00000000E+00
 INPUT CARD> 2  2-7.71489043E-02 0.00000000E+00 0.00000000E+00 9.73717494E-03 6.62450916E-04
 INPUT CARD> 2  3 6.62450916E-04-1.32490183E-03 0.00000000E+00 0.00000000E+00 0.00000000E+00
 INPUT CARD> 2  4-1.96090317E-01-1.96656153E-02-1.74855877E-02 3.02859263E-02 8.68214399E-03
 INPUT CARD> 2  5-1.96090317E-01-1.96656153E-02-1.74855877E-02-3.02859263E-02 8.68214399E-03
 INPUT CARD> 2  6-1.96090317E-01-1.96656153E-02 3.49711754E-02 0.00000000E+00 8.68214399E-03
 INPUT CARD> 3  1 0.00000000E+00 0.00000000E+00 0.00000000E+00 4.48608762E-01 0.00000000E+00
 INPUT CARD> 3  2 0.00000000E+00 2.18692520E-01 0.00000000E+00 0.00000000E+00 1.30198027E-02
 INPUT CARD> 3  3-1.30198027E-02 0.00000000E+00 0.00000000E+00 2.71832968E-02 0.00000000E+00
 INPUT CARD> 3  4-1.85332726E-01-7.03958951E-02 8.47929477E-03 1.95242443E-02 8.32835058E-03
 INPUT CARD> 3  5-1.85332726E-01-7.03958951E-02 8.47929477E-03-1.95242443E-02 8.32835058E-03
 INPUT CARD> 3  6 3.70665453E-01 1.40791790E-01-2.53376884E-02 0.00000000E+00-1.66567012E-02
 INPUT CARD> 4  1 0.00000000E+00 0.00000000E+00 0.00000000E+00 0.00000000E+00 4.48608762E-01
 INPUT CARD> 4  2 0.00000000E+00 0.00000000E+00 2.18692520E-01 0.00000000E+00 0.00000000E+00
 INPUT CARD> 4  3 0.00000000E+00 0.00000000E+00-1.50339731E-02 0.00000000E+00 2.71832968E-02
 INPUT CARD> 4  4 3.21005698E-01 1.21929267E-01 1.95242443E-02-1.40653607E-02-1.44251263E-02
  100000000 WORDS OF MEMORY AVAILABLE

     BASIS OPTIONS
     -------------
     GBASIS=CCD          IGAUSS=       0      POLAR=NONE    
     NDFUNC=       0     NFFUNC=       0     DIFFSP=       F
     NPFUNC=       0      DIFFS=       F     BASNAM=        


     RUN TITLE
     ---------
  NH3+ 3 states calculation at NH3 structure.                                    

 THE POINT GROUP OF THE MOLECULE IS C1      
 THE ORDER OF THE PRINCIPAL AXIS IS     0

 ATOM      ATOMIC                      COORDINATES (BOHR)
           CHARGE         X                   Y                   Z
 N           7.0    -0.0706256893       -0.0353127596       -0.3200836930
 H           1.0    -0.0854330171        1.9948153389        0.4645925736
 H           1.0    -0.5187017628       -1.9178450685        0.2053893724
 H           1.0     1.5854976555        0.4137125024        0.7839461044

          INTERNUCLEAR DISTANCES (ANGS.)
          ------------------------------

                1 N          2 H          3 H          4 H     

   1 N       0.0000000    1.1517791 *  1.0611056 *  1.0797356 *
   2 H       1.1517791 *  0.0000000    2.0876575 *  1.2290000 *
   3 H       1.0611056 *  2.0876575 *  0.0000000    1.6899360 *
   4 H       1.0797356 *  1.2290000 *  1.6899360 *  0.0000000  

  * ... LESS THAN  3.000


     ATOMIC BASIS SET
     ----------------
 THE CONTRACTED PRIMITIVE FUNCTIONS HAVE BEEN UNNORMALIZED
 THE CONTRACTED BASIS FUNCTIONS ARE NOW NORMALIZED TO UNITY

  SHELL TYPE  PRIMITIVE        EXPONENT          CONTRACTION COEFFICIENT(S)

 N         

      1   S       1          9046.0000000    0.000699617413
      1   S       2          1357.0000000    0.005386054630
      1   S       3           309.3000000    0.027391021189
      1   S       4            87.7300000    0.103150591982
      1   S       5            28.5600000    0.278570663317
      1   S       6            10.2100000    0.448294849454
      1   S       7             3.8380000    0.278085928395
      1   S       8             0.7466000    0.015431561233

      2   S       9          9046.0000000   -0.000304990096
      2   S      10          1357.0000000   -0.002408026379
      2   S      11           309.3000000   -0.011944448725
      2   S      12            87.7300000   -0.048925992909
      2   S      13            28.5600000   -0.134472724725
      2   S      14            10.2100000   -0.315112577700
      2   S      15             3.8380000   -0.242857832550
      2   S      16             0.7466000    1.094382206854

      3   S      17             0.2248000    1.000000000000

      4   P      18            13.5500000    0.058905676772
      4   P      19             2.9170000    0.320461106714
      4   P      20             0.7973000    0.753042061792

      5   P      21             0.2185000    1.000000000000

      6   D      22             0.8170000    1.000000000000

 H         

      7   S      23            13.0100000    0.033498726390
      7   S      24             1.9620000    0.234800801174
      7   S      25             0.4446000    0.813682957883

      8   S      26             0.1220000    1.000000000000

      9   P      27             0.7270000    1.000000000000

 H         

     10   S      28            13.0100000    0.033498726390
     10   S      29             1.9620000    0.234800801174
     10   S      30             0.4446000    0.813682957883

     11   S      31             0.1220000    1.000000000000

     12   P      32             0.7270000    1.000000000000

 H         

     13   S      33            13.0100000    0.033498726390
     13   S      34             1.9620000    0.234800801174
     13   S      35             0.4446000    0.813682957883

     14   S      36             0.1220000    1.000000000000

     15   P      37             0.7270000    1.000000000000

 TOTAL NUMBER OF BASIS SET SHELLS             =   15
 NUMBER OF CARTESIAN GAUSSIAN BASIS FUNCTIONS =   30
 NOTE: THIS RUN WILL RESTRICT THE MO VARIATION SPACE TO SPHERICAL HARMONICS.
 THE NUMBER OF ORBITALS KEPT IN THE VARIATIONAL SPACE WILL BE PRINTED LATER.
 NUMBER OF ELECTRONS                          =    9
 CHARGE OF MOLECULE                           =    1
 SPIN MULTIPLICITY                            =    2
 NUMBER OF OCCUPIED ORBITALS (ALPHA)          =    5
 NUMBER OF OCCUPIED ORBITALS (BETA )          =    4
 TOTAL NUMBER OF ATOMS                        =    4
 THE NUCLEAR REPULSION ENERGY IS       11.1349107272

     $CONTRL OPTIONS
     ---------------
 SCFTYP=MCSCF        RUNTYP=ENERGY       EXETYP=RUN     
 MPLEVL=       2     CITYP =NONE         CCTYP =NONE         VBTYP =NONE    
 DFTTYP=NONE         TDDFT =NONE    
 MULT  =       2     ICHARG=       1     NZVAR =       0     COORD =UNIQUE  
 PP    =NONE         RELWFN=NONE         LOCAL =NONE         NUMGRD=       F
 ISPHER=       1     NOSYM =       1     MAXIT =     200     UNITS =ANGS    
 PLTORB=       F     MOLPLT=       F     AIMPAC=       F     FRIEND=        
 NPRINT=       7     IREST =       0     GEOM  =INPUT   
 NORMF =       0     NORMP =       0     ITOL  =      20     ICUT  =       9
 INTTYP=RYSQUAD      GRDTYP=BEST         QMTTOL= 1.0E-05

     $SYSTEM OPTIONS
     ---------------
  REPLICATED MEMORY=   100000000 WORDS (ON EVERY NODE).
 DISTRIBUTED MEMDDI=        1000 MILLION WORDS IN AGGREGATE,
 MEMDDI DISTRIBUTED OVER   1 PROCESSORS IS  1000000000 WORDS/PROCESSOR.
 TOTAL MEMORY REQUESTED ON EACH PROCESSOR=  1100000000 WORDS.
 TIMLIM=      525600.00 MINUTES, OR     365.0 DAYS.
 PARALL= T  BALTYP=  DLB     KDIAG=    3  COREFL= F
 MXSEQ2=     300 MXSEQ3=     150  mem10=         0

          ----------------
          PROPERTIES INPUT
          ----------------

     MOMENTS            FIELD           POTENTIAL          DENSITY
 IEMOM =       1   IEFLD =       0   IEPOT =       0   IEDEN =       0
 WHERE =COMASS     WHERE =NUCLEI     WHERE =NUCLEI     WHERE =NUCLEI  
 OUTPUT=BOTH       OUTPUT=BOTH       OUTPUT=BOTH       OUTPUT=BOTH    
 IEMINT=       0   IEFINT=       0                     IEDINT=       0
                                                       MORB  =       0

     -------------------------------
     INTEGRAL TRANSFORMATION OPTIONS
     -------------------------------
     NWORD  =            0
     CUTOFF = 1.0E-09     MPTRAN =       0
     DIRTRF =       T     AOINTS =DUP     

          ----------------------
          MCSCF INPUT PARAMETERS
          ----------------------
 CONVERGER SELECTION: FOCAS = F  SOSCF = F  FULLNR = T  QUD = F  JACOBI = F
 SECULAR EQUATION METHOD CISTEP = GMCCI   
 --- GENERAL INPUT OPTIONS:
 MAXIT =     100  MICIT =       1  ACURCY= 1.000E-06
 DAMP  =   0.000  CANONC=       T  ENGTOL= 1.000E-10
 EKT   =       F  NPUNCH=       2  NWORD =         0
 REGENERATE CI AFTER CONVERGENCE = NONE    
 DIABATIZATION AFTER CONVERGENCE =        F
 --- INPUT FOR FULLNR CONVERGER:
 METHOD=DM2       FORS  =       F  DROPC =       T
 LINSER=       F  FCORE =       F  NORB  =      30

          ----------------------
          INTEGRAL INPUT OPTIONS
          ----------------------
 NOPK  =       1 NORDER=       0 SCHWRZ=       T

 ------------------------------------------
 MULTIREFERENCE PERTURBATION THEORY CONTROL
 ------------------------------------------
 MRPT=GMCPT    READ CONVERGED MCSCF VECTORS= F


     ------------------------------------------
     THE POINT GROUP IS C1 , NAXIS= 1, ORDER= 1
     ------------------------------------------

 -- VARIATIONAL SPACE WILL BE RESTRICTED TO PURE SPHERICAL HARMONICS ONLY --
 AFTER EXCLUDING CONTAMINANT COMBINATIONS FROM THE CARTESIAN GAUSSIAN BASIS
 SET, THE NUMBER OF SPHERICAL HARMONICS KEPT IN THE VARIATION SPACE IS   29

     DIMENSIONS OF THE SYMMETRY SUBSPACES ARE
 A   =   29

 ..... DONE SETTING UP THE RUN .....
 CPU     0: STEP CPU TIME=     0.03 TOTAL CPU TIME=          0.0 (      0.0 MIN)
 TOTAL WALL CLOCK TIME=          0.0 SECONDS, CPU UTILIZATION IS    75.00%

          ********************
          1 ELECTRON INTEGRALS
          ********************
 TIME TO DO   DIPOLE INTEGRALS=      0.00
 ...... END OF ONE-ELECTRON INTEGRALS ......
 CPU     0: STEP CPU TIME=     0.00 TOTAL CPU TIME=          0.0 (      0.0 MIN)
 TOTAL WALL CLOCK TIME=          0.0 SECONDS, CPU UTILIZATION IS    75.00%

          -------------
          GUESS OPTIONS
          -------------
          GUESS =MOREAD            NORB  =      29          NORDER=       0
          MIX   =       F          PRTMO =       F          PUNMO =       F
          TOLZ  = 1.0E-08          TOLE  = 1.0E-05
          SYMDEN=       F          PURIFY=       T

 INITIAL GUESS ORBITALS GENERATED BY MOREAD   ROUTINE.

 STATISTICS FOR GENERATION OF SYMMETRY ORBITAL -Q- MATRIX
 NUMBER OF CARTESIAN ATOMIC ORBITALS=         30
 NUMBER OF SPHERICAL CONTAMINANTS DROPPED=     1
 NUMBER OF LINEARLY DEPENDENT MOS DROPPED=     0
 TOTAL NUMBER OF MOS IN VARIATION SPACE=      29
 ORBITAL PURIFICATION WILL OCCUR

 SYMMETRIES FOR INITIAL GUESS ORBITALS FOLLOW.   BOTH SET(S).
     5 ORBITALS ARE OCCUPIED (    1 CORE ORBITALS).
     1=A        2=A        3=A        4=A        5=A        6=A        7=A   
     8=A        9=A       10=A       11=A       12=A       13=A       14=A   
    15=A       16=A       17=A       18=A       19=A       20=A       21=A   
    22=A       23=A       24=A       25=A       26=A       27=A       28=A   
    29=A   
 ...... END OF INITIAL ORBITAL SELECTION ......
 CPU     0: STEP CPU TIME=     0.02 TOTAL CPU TIME=          0.0 (      0.0 MIN)
 TOTAL WALL CLOCK TIME=          0.1 SECONDS, CPU UTILIZATION IS   100.00%

                    ----------------------
                    AO INTEGRAL TECHNOLOGY
                    ----------------------
     S,P,L SHELL ROTATED AXIS INTEGRALS, REPROGRAMMED BY
        KAZUYA ISHIMURA (IMS) AND JOSE SIERRA (SYNSTAR).
     S,P,D,L SHELL ROTATED AXIS INTEGRALS PROGRAMMED BY
        KAZUYA ISHIMURA (INSTITUTE FOR MOLECULAR SCIENCE).
     S,P,D,F,G SHELL TO TOTAL QUARTET ANGULAR MOMENTUM SUM 5,
        ERIC PROGRAM BY GRAHAM FLETCHER (ELORET AND NASA ADVANCED
        SUPERCOMPUTING DIVISION, AMES RESEARCH CENTER).
     S,P,D,F,G,L SHELL GENERAL RYS QUADRATURE PROGRAMMED BY
        MICHEL DUPUIS (PACIFIC NORTHWEST NATIONAL LABORATORY).

          --------------------
          2 ELECTRON INTEGRALS
          --------------------

 DIRECT SCF METHOD SKIPS INTEGRAL STORAGE ON DISK.
 DIRECT TRANSFORMATION SKIPS AO INTEGRAL STORAGE ON DISK.
  ...... END OF TWO-ELECTRON INTEGRALS .....
 STEP CPU TIME =     0.02 TOTAL CPU TIME =          0.1 (      0.0 MIN)
 TOTAL WALL CLOCK TIME=          0.1 SECONDS, CPU UTILIZATION IS   100.00%
 DDI: Creating Array [0] - 900 x 36 = 32400 words.
 DDI: Creating Array [1] - 21 x 288 = 6048 words.
 DDI: Creating Array [2] - 36 x 36 = 1296 words.
 DDI: Creating Array [3] - 465 x 36 = 16740 words.

          -----------------
          MCSCF CALCULATION
          -----------------

 ----- NUCLEAR ENERGY ----- =        11.1349107272

     -------------------------------------------------
     GMC-PT/GMC-QDPT or general MCSCF input parameters
     -------------------------------------------------
 # of frozen core orbs. =         0 ->         0
 # of doubly occ. orbs. =         1
 # of active      orbs. =         7
 # of virtual     orbs. =        21
 # of active electrons  =         7
 # of states in CI      =         3
 Highest state in CI    =         3
 kstate =  1 1 1
 avecoe =  0.333 0.333 0.333
 State symmetry           = A           
 Assigned symmetry number = 1

 <<<Act. MO sym.: 1111111

 <<<Division of 1-ext.:  0
 <<<Division of 2-ext.:  0

 *** Reference space

 Reference type: ORMAS (= Occupation restricted multiple active space)
 # of orbitals          =  7
 # of minimum electrons =  7
 # of maximum electrons =  7
 State symmetry    =    1 (input)
 2*Sz              =    1 (input)
 Spin multiplicity =    2 (input)
 Dimension of reference space =      1225  (from      3432 walks)

 Dimension of reference space =      1225  (from      1225 walks)

 <<<Ionized spaces for Ref-CI:
      0:         1225 /   -1-0:         1960 /  0-1-0:         2891

 EVALUATING EXCHANGE INTEGRALS FOR DIRECT INTEGRAL TRANSFORMATION
 SCHWARZ INEQUALITY OVERHEAD:       465 INTEGRALS, T=        0.01

     --------------------------------------------
     PARTIAL TWO ELECTRON INTEGRAL TRANSFORMATION
     --------------------------------------------

 NUMBER OF CORE MOLECULAR ORBITALS     =    1
 NUMBER OF OCCUPIED MOLECULAR ORBITALS =    8
 TOTAL NUMBER OF MOLECULAR ORBITALS    =   29
 TOTAL NUMBER OF ATOMIC ORBITALS       =   30
 THRESHOLD FOR KEEPING TRANSFORMED 2E- INTEGRALS = 1.000E-09

 -------------------------------     ------------------------------
 DISTRIBUTED DATA TRANSFORMATION     PROGRAM WRITTEN BY G. FLETCHER
 -------------------------------     ------------------------------

 THE DISTRIBUTED MEMORY REQUIRED FOR THIS STEP IS MEMDDI=         1 MWORDS
 CREATING DISTRIBUTED STORAGE FOR [VIR OCC|VIR OCC] INTEGRALS
 CREATING DISTRIBUTED STORAGE FOR [VIR OCC|OCC OCC] INTEGRALS
 CREATING DISTRIBUTED STORAGE FOR [OCC OCC|OCC OCC] INTEGRALS
 CREATING DISTRIBUTED STORAGE FOR [VIR VIR|OCC OCC] INTEGRALS
 FOR    1 PROCESSORS, THE REPLICATED MEMORY NEEDED IS       73700 WORDS.
 SCHWARZ INEQUALITY OVERHEAD:       465 INTEGRALS, T=        0.01

      DIRECT 4-INDEX TRANSFORMATION 
      SCHWARZ INEQUALITY TEST SKIPPED          0 INTEGRAL BLOCKS
 ----- FROZEN CORE ENERGY =       -47.6284697844
 ... END OF INTEGRAL TRANSFORMATION ...
 CPU     0: STEP CPU TIME=     0.22 TOTAL CPU TIME=          0.3 (      0.0 MIN)
 TOTAL WALL CLOCK TIME=          0.3 SECONDS, CPU UTILIZATION IS   100.00%

     --------------------------------     -----------------------------
     MCHF NEWTON-RAPHSON OPTIMIZATION     CODE WRITTEN BY MICHEL DUPUIS
     --------------------------------     -----------------------------
     PARALLEL VERSION WRITTEN BY G. FLETCHER (ELORET)
     NASA ADVANCED SUPERCOMPUTING DIVISION, AMES RESEARCH CENTER

 NUMBER OF INDEPENDENT ORBITAL ROTATION PARAMETERS =   175
 ..... DONE SOLVING NEWTON-RAPHSON EQUATIONS .....
 CPU     0: STEP CPU TIME=     0.82 TOTAL CPU TIME=          1.1 (      0.0 MIN)
 TOTAL WALL CLOCK TIME=          1.1 SECONDS, CPU UTILIZATION IS    99.11%
 ..... DONE WITH NTN-RPH ORBITAL ROTATIONS ..... 
 CPU     0: STEP CPU TIME=     0.00 TOTAL CPU TIME=          1.1 (      0.0 MIN)
 TOTAL WALL CLOCK TIME=          1.1 SECONDS, CPU UTILIZATION IS    99.11%
 MAXIMUM MEMORY USED BY NTN-RPH CODE WAS     57645 WORDS.

 ITER     TOTAL ENERGY      DEL(E)  LAGRANGIAN ASYMMETRY   SQCDF  MICIT   DAMP
   1      -55.606977756 -0.606977756  0.111399   12    5 1.089E-01  1   0.0000
   2      -55.661554803 -0.054577046  0.019967   12    5 4.592E-01  1   0.0000
   3      -55.697431100 -0.035876297  0.013723   11    6 2.287E-01  1   0.0199
   4      -55.713569233 -0.016138134  0.004743   11    6 4.477E-02  1   0.0056
   5      -55.715733525 -0.002164292  0.001033   13    5 1.201E-03  1   0.0000
   6      -55.715798294 -0.000064768  0.000431   13    5 9.987E-05  1   0.0000
   7      -55.715805356 -0.000007062  0.000191   13    5 1.991E-05  1   0.0000
   8      -55.715806823 -0.000001467  0.000091   22    5 4.928E-06  1   0.0000
   9      -55.715807185 -0.000000362  0.000045   22    5 1.373E-06  1   0.0000
  10      -55.715807284 -0.000000099  0.000023   22    5 4.131E-07  1   0.0000
  11      -55.715807313 -0.000000029  0.000012   22    5 1.310E-07  1   0.0000
  12      -55.715807322 -0.000000009  0.000006   22    5 4.308E-08  1   0.0000
  13      -55.715807325 -0.000000003  0.000003   22    5 1.466E-08  1   0.0000
  14      -55.715807326 -0.000000001  0.000002   22    5 5.092E-09  1   0.0000
  15      -55.715807326 -0.000000000  0.000001   22    5 1.807E-09  1   0.0000

          --------------------
          LAGRANGIAN CONVERGED
          --------------------

 FINAL MCSCF ENERGY IS      -55.7158073260 AFTER  15 ITERATIONS

 -MCCI- BASED ON OPTIMIZED ORBITALS
 ----------------------------------

 PLEASE NOTE: IF THE ACTIVE ORBITALS ARE CANONICALIZED BELOW,
 THE FOLLOWING CI EXPANSION COEFFICIENTS AND THE DENSITY DO NOT
 CORRESPOND TO THE PRINTED ORBITALS.  THE PRINTED EXPANSIONS MATCH
 THE ORBITALS USED DURING THE LAST ITERATION.  IF YOU WISH TO SEE
 CI EXPANSIONS BASED ON THE CANONICAL (OR NATURAL) ORBITALS, YOU
 MUST RUN A CI CALCULATION WITH THAT ORBITAL CHOICE READ IN $VEC.

 Averaged energy =     -55.715807326

 State #    1  Energy =     -55.853240499  S =  0.500

      Det      Coef    Occupancy (Ignoring core)
      ---      ----    --------- --------- -----
        1   -0.903723  11110001110000
        5    0.070385  01111001110000
        8    0.140989  10110101110000
       17   -0.127032  11010011110000
       71    0.277333  11110001011000
      211   -0.052155  11110000110100
      386   -0.094220  11110001010010
      393   -0.073340  10110101010010
      701    0.106183  11110001100001

 State #    2  Energy =     -55.732051809  S =  0.500

      Det      Coef    Occupancy (Ignoring core)
      ---      ----    --------- --------- -----
        1    0.252942  11110001110000
       36    0.392766  11110001101000
       71    0.833783  11110001011000
       74   -0.066237  10111001011000
       75   -0.061681  01111001011000
       78   -0.092724  10110101011000
       87    0.092090  11010011011000
      386    0.071919  11110001010010
      806    0.081841  11110001001001

 State #    3  Energy =     -55.562129670  S =  0.500

      Det      Coef    Occupancy (Ignoring core)
      ---      ----    --------- --------- -----
        1    0.097494  11110001110000
       36   -0.876685  11110001101000
       43    0.081613  10110101101000
       52   -0.055851  11010011101000
       71    0.377498  11110001011000
      281   -0.073933  11110000101100
      456   -0.104434  11110001001010
      463   -0.072267  10110101001010

 DENSITY MATRIX OVER ACTIVE MO-S

             1           2           3           4           5

    1    1.9738531
    2    0.0236366   1.6229391
    3   -0.0003305   0.0042948   1.6330059
    4   -0.0007068   0.0066477  -0.0015253   1.6513750
    5    0.1085123  -0.0632951  -0.0013550   0.0208886   0.0347550
    6    0.0065574  -0.1670245   0.0022187   0.0644511   0.0110192
    7   -0.0107926  -0.0040167  -0.1471212   0.0012319  -0.0032012

             6           7

    6    0.0496432
    7   -0.0033819   0.0344287

 FORMING THE "STANDARD FOCK OPERATOR" IN DIRECT AO INTEGRAL MODE...
 ONLY THE    1 CORE AND   21 VIRTUAL ORBITALS WILL BE CANONICALIZED

          ----------------------
          MCSCF NATURAL ORBITALS
          ----------------------

                      1          2          3          4          5
                  -15.9817     1.9811     1.6548     1.6485     1.6394
                     A          A          A          A          A   
    1  N  1  S    1.001102   0.009104  -0.008909  -0.003040  -0.002957
    2  N  1  S   -0.001940   0.434721  -0.151408  -0.109469  -0.058813
    3  N  1  S   -0.006307   0.325368  -0.247426  -0.148832  -0.090391
    4  N  1  X    0.000057   0.046493  -0.132441   0.196004   0.481749
    5  N  1  Y   -0.000151   0.007299  -0.151543   0.382213  -0.240350
    6  N  1  Z    0.001116   0.087221   0.562236   0.167547  -0.002682
    7  N  1  X   -0.000007   0.003307  -0.096819   0.073222   0.272836
    8  N  1  Y   -0.000034   0.004308  -0.069865   0.129448  -0.127407
    9  N  1  Z   -0.000531   0.014823   0.377793   0.089368  -0.028554
   10  N  1 XX   -0.000149  -0.002497  -0.013532   0.002656   0.013391
   11  N  1 YY    0.000322   0.002555  -0.008482  -0.010233  -0.013426
   12  N  1 ZZ   -0.000173  -0.000058   0.022013   0.007577   0.000034
   13  N  1 XY    0.000211   0.002420   0.000282   0.000531   0.000904
   14  N  1 XZ    0.000142   0.002428  -0.000319   0.011310   0.021591
   15  N  1 YZ    0.000005   0.002153  -0.005557   0.016507  -0.010009
   16  H  2  S   -0.001448   0.164937   0.029508   0.254029  -0.263574
   17  H  2  S    0.000363  -0.001141   0.021903   0.035112  -0.090714
   18  H  2  X   -0.000053   0.002207  -0.002079   0.013944   0.015072
   19  H  2  Y    0.000758  -0.029315  -0.005537  -0.029285   0.025921
   20  H  2  Z    0.000366  -0.006573   0.023103  -0.003227   0.009139
   21  H  3  S   -0.001820   0.166711   0.201039  -0.317175   0.026568
   22  H  3  S    0.000624  -0.000624   0.040370  -0.037682  -0.009361
   23  H  3  X   -0.000267   0.010854   0.003151  -0.004435   0.021341
   24  H  3  Y   -0.000949   0.031325   0.022802  -0.034118   0.002047
   25  H  3  Z    0.000315  -0.002949   0.016137   0.016659  -0.000509
   26  H  4  S   -0.001762   0.211155   0.070756   0.238093   0.299971
   27  H  4  S    0.000274   0.008669   0.022530   0.037440   0.098843
   28  H  4  X    0.000830  -0.032724  -0.017310  -0.021973  -0.016238
   29  H  4  Y    0.000203  -0.007960  -0.004689   0.015638  -0.015788
   30  H  4  Z    0.000526  -0.016875   0.020685  -0.007416  -0.020109

                      6          7          8
                    0.0328     0.0242     0.0192
                     A          A          A   
    1  N  1  S   -0.117773  -0.133746  -0.120431
    2  N  1  S   -0.399453  -0.486368  -0.364863
    3  N  1  S   -0.013700  -0.209669  -0.000406
    4  N  1  X    0.598967  -0.502810   0.094313
    5  N  1  Y   -0.248641  -0.225409   0.866710
    6  N  1  Z   -0.201648  -0.579291  -0.196911
    7  N  1  X   -0.060293  -0.069046   0.010696
    8  N  1  Y    0.014852  -0.072686   0.077123
    9  N  1  Z    0.050626   0.038119   0.070748
   10  N  1 XX   -0.059398  -0.005878  -0.008224
   11  N  1 YY    0.063335   0.003973   0.019717
   12  N  1 ZZ   -0.003937   0.001905  -0.011493
   13  N  1 XY    0.013221   0.033297  -0.031506
   14  N  1 XZ   -0.000504   0.042126   0.009890
   15  N  1 YZ    0.014297   0.027136  -0.045780
   16  H  2  S    0.661897   0.279355  -0.334466
   17  H  2  S    0.184336   0.014437  -0.105960
   18  H  2  X   -0.014889   0.031283  -0.014529
   19  H  2  Y   -0.065463  -0.032781   0.024623
   20  H  2  Z    0.000550   0.029593  -0.007860
   21  H  3  S    0.344302   0.119170   0.778174
   22  H  3  S    0.058552  -0.011446   0.149604
   23  H  3  X   -0.004853   0.010073   0.024387
   24  H  3  Y    0.035253   0.022658   0.077302
   25  H  3  Z   -0.002401   0.005734   0.025940
   26  H  4  S   -0.379321   0.747246   0.063370
   27  H  4  S   -0.158347   0.149263   0.025864
   28  H  4  X    0.005222  -0.065640  -0.012099
   29  H  4  Y    0.019677   0.015637  -0.041588
   30  H  4  Z    0.024164   0.000665  -0.003338

          ------------------------
          MCSCF OPTIMIZED ORBITALS
          ------------------------

                      1          2          3          4          5
                  -15.9817     0.0000     0.0000     0.0000     0.0000
                     A          A          A          A          A   
    1  N  1  S    1.001102  -0.002042   0.011192   0.006292  -0.013968
    2  N  1  S   -0.001940   0.399130  -0.012629  -0.005535  -0.191307
    3  N  1  S   -0.006307   0.321526  -0.096222  -0.011620  -0.278628
    4  N  1  X    0.000057   0.016420   0.450409  -0.051041  -0.034058
    5  N  1  Y   -0.000151  -0.001807  -0.002843   0.390037  -0.023888
    6  N  1  Z    0.001116   0.051043   0.010493  -0.003012   0.582524
    7  N  1  X   -0.000007  -0.016766   0.286436  -0.061530  -0.069865
    8  N  1  Y   -0.000034   0.003916  -0.038757   0.182335  -0.025143
    9  N  1  Z   -0.000531   0.020112  -0.045625  -0.013694   0.389040
   10  N  1 XX   -0.000149  -0.005577   0.020877  -0.002696  -0.014310
   11  N  1 YY    0.000322   0.005905  -0.022058   0.001383  -0.008617
   12  N  1 ZZ   -0.000173  -0.000328   0.001181   0.001313   0.022927
   13  N  1 XY    0.000211   0.003878   0.001778   0.003302   0.000133
   14  N  1 XZ    0.000142   0.003076   0.024763  -0.002444   0.002882
   15  N  1 YZ    0.000005   0.003172   0.001621   0.024585  -0.000683
   16  H  2  S   -0.001448   0.198889  -0.140935   0.388373   0.122102
   17  H  2  S    0.000363   0.007437  -0.077426   0.085195   0.036532
   18  H  2  X   -0.000053   0.001804   0.022939   0.005001   0.001226
   19  H  2  Y    0.000758  -0.032851   0.011621  -0.040394  -0.015920
   20  H  2  Z    0.000366  -0.005483   0.003092  -0.012350   0.020600
   21  H  3  S   -0.001820   0.202061  -0.218032  -0.374540   0.117295
   22  H  3  S    0.000624   0.004465  -0.044847  -0.046718   0.031256
   23  H  3  X   -0.000267   0.010600   0.015808  -0.017601   0.001798
   24  H  3  Y   -0.000949   0.035429  -0.022894  -0.039567   0.013494
   25  H  3  Z    0.000315  -0.002815   0.004500   0.007390   0.020618
   26  H  4  S   -0.001762   0.211705   0.427232   0.008008   0.119616
   27  H  4  S    0.000274   0.004934   0.117988  -0.032936   0.025944
   28  H  4  X    0.000830  -0.034230  -0.025434  -0.004391  -0.022526
   29  H  4  Y    0.000203  -0.006898  -0.005402   0.026363   0.000222
   30  H  4  Z    0.000526  -0.014773  -0.027226   0.000216   0.018156

                      6          7          8          9         10
                    0.0000     0.0000     0.0000     0.1378     0.2022
                     A          A          A          A          A   
    1  N  1  S    0.202558  -0.046918  -0.053356  -0.118044   0.020349
    2  N  1  S    0.724145  -0.132232  -0.136480  -0.175967   0.019163
    3  N  1  S    0.197921   0.104900   0.031170   1.229820  -0.302831
    4  N  1  X    0.075807   0.832912  -0.065457  -0.044465  -0.009711
    5  N  1  Y    0.051023   0.126055   0.958899  -0.016198  -0.158592
    6  N  1  Z    0.644082   0.090885  -0.040609  -0.172589   0.025810
    7  N  1  X    0.069725   0.025344   0.034721   0.187246   0.207598
    8  N  1  Y    0.031241   0.066842   0.092201   0.118594   0.779168
    9  N  1  Z   -0.068939   0.015582   0.041828   0.391561  -0.012745
   10  N  1 XX    0.034959  -0.043738   0.013853  -0.023745   0.034445
   11  N  1 YY   -0.038939   0.051440  -0.004411   0.064097  -0.061561
   12  N  1 ZZ    0.003980  -0.007702  -0.009443  -0.040352   0.027115
   13  N  1 XY   -0.024456  -0.015000  -0.037827   0.047213  -0.018675
   14  N  1 XZ   -0.038178  -0.019030   0.004011   0.059234   0.030409
   15  N  1 YZ   -0.015750  -0.014047  -0.048803   0.030409   0.090353
   16  H  2  S   -0.436766   0.279389  -0.544157   0.403796   0.210791
   17  H  2  S   -0.066745   0.106185  -0.158068  -0.915578  -0.747818
   18  H  2  X   -0.015028  -0.030414  -0.011634   0.048474   0.012514
   19  H  2  Y    0.049242  -0.026758   0.046321   0.060543   0.038032
   20  H  2  Z   -0.022490  -0.018275  -0.012347   0.040779   0.067797
   21  H  3  S   -0.474163   0.364360   0.554817   0.299391  -0.540497
   22  H  3  S   -0.060828   0.082430   0.115728  -0.611422   1.924409
   23  H  3  X   -0.013138  -0.002268   0.021669  -0.038105   0.019271
   24  H  3  Y   -0.055592   0.030759   0.053268  -0.071783   0.119229
   25  H  3  Z   -0.011280   0.000551   0.024960  -0.018865  -0.071806
   26  H  4  S   -0.452882  -0.667120   0.103303   0.299128   0.199529
   27  H  4  S   -0.057373  -0.193179   0.058852  -0.853439  -0.663835
   28  H  4  X    0.053920   0.036263  -0.005613   0.062539   0.013140
   29  H  4  Y   -0.010411  -0.003079  -0.045285   0.088409   0.003810
   30  H  4  Z   -0.010861   0.014817  -0.011866   0.063199   0.040722

                     11         12         13         14         15
                    0.2403     0.5314     0.5897     0.6772     0.8237
                     A          A          A          A          A   
    1  N  1  S    0.023235   0.093943  -0.003419  -0.022088  -0.420594
    2  N  1  S    0.050969   0.125162   0.105240  -0.031944  -0.959587
    3  N  1  S   -0.138794  -0.612586   0.506354   0.084583   1.573186
    4  N  1  X   -0.001247  -0.560091  -0.391252   0.036644  -0.026372
    5  N  1  Y   -0.055441   0.015476   0.094569  -0.476405  -0.037025
    6  N  1  Z    0.030665   0.513951  -0.472895  -0.094734   0.282944
    7  N  1  X   -0.341001   1.002009   1.172330   0.209176  -0.015954
    8  N  1  Y    0.340402   0.131595  -0.073746   1.911039   0.027396
    9  N  1  Z   -0.120251  -0.655840   0.951064   0.296295  -0.212645
   10  N  1 XX   -0.065991   0.016909   0.000068   0.033250  -0.000009
   11  N  1 YY    0.075087   0.003814  -0.026099  -0.013625   0.024430
   12  N  1 ZZ   -0.009096  -0.020723   0.026032  -0.019626  -0.024422
   13  N  1 XY   -0.026964   0.020891  -0.061942   0.040446  -0.144226
   14  N  1 XZ   -0.062860   0.013686  -0.008779  -0.006667   0.047815
   15  N  1 YZ    0.026281   0.000099  -0.004702  -0.088503  -0.040290
   16  H  2  S    0.557891   0.258285  -0.115081  -0.662913   0.109746
   17  H  2  S   -1.863037   0.402923   0.444531  -0.568776  -0.348470
   18  H  2  X   -0.037035   0.071793  -0.134504   0.041918  -0.353379
   19  H  2  Y    0.060216  -0.021704   0.040086   0.239232   0.142740
   20  H  2  Z    0.006895  -0.089840   0.007419  -0.142049  -0.051290
   21  H  3  S    0.107686   0.449763  -0.306512   0.620697  -0.122867
   22  H  3  S   -0.198271   0.378579   0.289193   0.627579  -0.383650
   23  H  3  X    0.035934   0.005370   0.105574  -0.027919   0.188609
   24  H  3  Y    0.012520   0.056364   0.001960   0.205353  -0.086717
   25  H  3  Z   -0.005714  -0.050023   0.063621   0.146377   0.133360
   26  H  4  S   -0.611330  -0.030475  -0.708764  -0.164443   0.123271
   27  H  4  S    2.084757  -0.549763  -0.778497  -0.044288  -0.200646
   28  H  4  X   -0.085276   0.053059   0.122824   0.157420   0.145603
   29  H  4  Y    0.006246   0.086404  -0.074580  -0.040670  -0.354242
   30  H  4  Z   -0.043265  -0.000693   0.107690  -0.064934   0.100227

                     16         17         18         19         20
                    1.0142     1.0641     1.2089     1.3409     1.4277
                     A          A          A          A          A   
    1  N  1  S   -0.395006  -0.325078  -0.010821  -0.278062  -0.342863
    2  N  1  S   -0.830260  -0.683370  -0.025556  -0.594581  -0.722495
    3  N  1  S    1.627128   1.468671   0.060526   0.995937   1.254929
    4  N  1  X   -0.059468  -0.052581   0.005368   0.009422   0.034121
    5  N  1  Y   -0.076418   0.118742  -0.261895  -0.026457  -0.023435
    6  N  1  Z    0.105355   0.045959   0.031889  -0.028177  -0.044141
    7  N  1  X    0.389756   0.294939   0.302122  -0.389827   0.459722
    8  N  1  Y    0.322699  -0.593885   1.053815  -0.258029   0.081552
    9  N  1  Z   -0.070452   0.381470   0.118883   0.400803   0.646287
   10  N  1 XX   -0.156935   0.172914   0.042365   0.102075  -0.063881
   11  N  1 YY   -0.091163  -0.081033  -0.017171   0.063447   0.078023
   12  N  1 ZZ    0.248098  -0.091881  -0.025193  -0.165522  -0.014142
   13  N  1 XY    0.077417   0.116703  -0.066342  -0.092608   0.090889
   14  N  1 XZ   -0.048439  -0.220822  -0.125881   0.011069  -0.094246
   15  N  1 YZ   -0.012911   0.065388   0.141698   0.008565   0.048704
   16  H  2  S   -0.410036   0.074708  -0.537466  -0.210406  -0.404412
   17  H  2  S   -0.164137  -0.001797  -0.128132  -0.008149   0.097614
   18  H  2  X    0.217670  -0.000843  -0.452604   0.375636   0.079420
   19  H  2  Y   -0.053347   0.100289  -0.326570  -0.052804  -0.057864
   20  H  2  Z    0.376910   0.104413   0.440997  -0.208194  -0.579206
   21  H  3  S   -0.061827  -0.449911   0.506121  -0.385421  -0.286534
   22  H  3  S   -0.158973  -0.352047   0.244772  -0.194205  -0.039256
   23  H  3  X   -0.022398  -0.496300   0.076202   0.683567  -0.281499
   24  H  3  Y    0.010505   0.018239  -0.200557  -0.147063   0.052768
   25  H  3  Z    0.270469   0.097989  -0.427964  -0.045791  -0.646334
   26  H  4  S   -0.438159  -0.328945  -0.113663  -0.161609  -0.447020
   27  H  4  S   -0.238670  -0.245346  -0.084272  -0.041655  -0.310823
   28  H  4  X   -0.226676   0.319851   0.171666   0.129173  -0.013596
   29  H  4  Y    0.212101   0.146614   0.181139   0.385157  -0.007724
   30  H  4  Z    0.364554  -0.437859  -0.044145  -0.357843   0.382904

                     21         22         23         24         25
                    1.6168     1.7963     1.8616     2.0019     2.0588
                     A          A          A          A          A   
    1  N  1  S   -0.133472   0.144671  -0.024125   0.106667   0.028551
    2  N  1  S   -0.249315   0.414893  -0.050630   0.219070   0.071705
    3  N  1  S    0.682587   0.778539  -0.183871  -0.196097   0.108049
    4  N  1  X   -0.190219   0.240456   0.213836   0.137286   0.025285
    5  N  1  Y   -0.028370   0.119786   0.539484  -0.191907  -0.103045
    6  N  1  Z   -0.019280   0.255999   0.054871   0.069174   0.036601
    7  N  1  X    0.018751  -0.101836   0.021462  -0.053538  -0.239197
    8  N  1  Y    0.822067  -0.039794   0.380892   0.055675   0.010265
    9  N  1  Z    0.320727   0.255138  -0.048882  -0.189489   0.243145
   10  N  1 XX    0.149953   0.026550  -0.095066   0.131166  -0.718145
   11  N  1 YY   -0.050259  -0.150119   0.110245   0.160237  -0.041993
   12  N  1 ZZ   -0.099695   0.123569  -0.015179  -0.291403   0.760138
   13  N  1 XY    0.027068  -0.081801   0.112008  -0.407044   0.314076
   14  N  1 XZ    0.111494  -0.276138  -0.017604  -0.146502   0.109542
   15  N  1 YZ   -0.091854   0.021246  -0.235805  -0.008479   0.131260
   16  H  2  S   -0.292595  -0.054086  -0.019551   0.189337   0.030503
   17  H  2  S   -0.483676  -0.325759  -0.130866   0.342292   0.106551
   18  H  2  X    0.392734   0.102436   0.083079   0.751856   0.240523
   19  H  2  Y    0.451411   0.751084   0.190442  -0.584280  -0.156458
   20  H  2  Z    0.413567  -0.021869   0.507500   0.181112  -0.094744
   21  H  3  S    0.209537  -0.128482   0.121566   0.044387  -0.094808
   22  H  3  S   -0.035254  -0.182587   0.516121   0.028220  -0.093744
   23  H  3  X    0.009312   0.037204   0.300120  -0.223628   0.098606
   24  H  3  Y   -0.356221  -0.532592   0.841632  -0.094823  -0.288110
   25  H  3  Z   -0.493751  -0.103114  -0.422668   0.181468  -0.088630
   26  H  4  S   -0.396229  -0.008764   0.043068  -0.060327  -0.049824
   27  H  4  S    0.255603  -0.161473  -0.279397  -0.343424  -0.074532
   28  H  4  X   -0.294236   0.433102   0.416003   0.529543   0.580204
   29  H  4  Y   -0.499223   0.395178  -0.051646  -0.500430  -0.386941
   30  H  4  Z   -0.211986   0.452923   0.143473   0.310568  -0.424009

                     26         27         28         29
                    2.2758     2.5461     2.6311     3.0486
                     A          A          A          A   
    1  N  1  S    0.102659  -0.005802  -0.150839  -0.061588
    2  N  1  S    0.177947  -0.073977  -0.154918  -0.027355
    3  N  1  S   -0.654079  -0.943103   1.993378   1.124577
    4  N  1  X   -0.005808  -0.076935   0.278425  -0.318724
    5  N  1  Y   -0.033099   0.389849   0.153386  -0.189329
    6  N  1  Z   -0.025346  -0.147074   0.275479   0.061992
    7  N  1  X   -0.347795  -0.185930   0.775216  -0.462871
    8  N  1  Y    0.145595   1.131475   0.699056  -0.315108
    9  N  1  Z   -0.385938  -0.235459   0.600254   0.067288
   10  N  1 XX    0.345193  -0.182918   0.154943  -0.941832
   11  N  1 YY   -0.106938  -0.050213   0.277681   1.514316
   12  N  1 ZZ   -0.238255   0.233131  -0.432624  -0.572484
   13  N  1 XY    0.781924  -0.573058   0.378474   0.117240
   14  N  1 XZ   -0.557589  -0.312649   0.901554  -0.440729
   15  N  1 YZ    0.300836   0.967307   0.718594  -0.064607
   16  H  2  S    0.162300  -0.545227  -0.760482  -0.731364
   17  H  2  S    0.039244  -0.357330  -0.173896  -0.200673
   18  H  2  X    0.017269   0.165178  -0.027853  -0.090644
   19  H  2  Y   -0.162823   0.592154   0.466979   0.749320
   20  H  2  Z   -0.033286   0.036433   0.238242   0.394771
   21  H  3  S    0.168150   1.056399  -0.103380  -1.130408
   22  H  3  S    0.048735   0.429078   0.070527  -0.323271
   23  H  3  X    0.600675   0.146769  -0.104939  -0.265913
   24  H  3  Y   -0.067084   0.878190  -0.041550  -0.847522
   25  H  3  Z    0.235825  -0.032741   0.252630   0.401053
   26  H  4  S    0.276558   0.474989  -1.260338   0.673002
   27  H  4  S    0.126590   0.261113  -0.490026   0.187167
   28  H  4  X   -0.122622  -0.398599   0.807621  -0.566675
   29  H  4  Y   -0.550132  -0.237820   0.152357  -0.087830
   30  H  4  Z    0.254848  -0.289787   0.568873  -0.359433
 .....DONE WITH MCSCF ITERATIONS.....
 CPU     0: STEP CPU TIME=     9.80 TOTAL CPU TIME=         10.9 (      0.2 MIN)
 TOTAL WALL CLOCK TIME=         10.9 SECONDS, CPU UTILIZATION IS    99.91%

     ----------------------------------------------------------------
     PROPERTY VALUES FOR THE MCSCF SELF-CONSISTENT FIELD WAVEFUNCTION
     ----------------------------------------------------------------

          -----------------
          ENERGY COMPONENTS
          -----------------

         WAVEFUNCTION NORMALIZATION =       1.0000000000

                ONE ELECTRON ENERGY =     -93.8195368528
                TWO ELECTRON ENERGY =      26.9688187996
           NUCLEAR REPULSION ENERGY =      11.1349107272
                                      ------------------
                       TOTAL ENERGY =     -55.7158073260

 ELECTRON-ELECTRON POTENTIAL ENERGY =      26.9688187996
  NUCLEUS-ELECTRON POTENTIAL ENERGY =    -149.5214753681
   NUCLEUS-NUCLEUS POTENTIAL ENERGY =      11.1349107272
                                      ------------------
             TOTAL POTENTIAL ENERGY =    -111.4177458413
               TOTAL KINETIC ENERGY =      55.7019385153
                 VIRIAL RATIO (V/T) =       2.0002489826

          ---------------------------------------
          MULLIKEN AND LOWDIN POPULATION ANALYSES
          ---------------------------------------

     ATOMIC MULLIKEN POPULATION IN EACH MOLECULAR ORBITAL

                      1          2          3          4          5

                  2.000000   1.981108   1.654820   1.648525   1.639353

    1             2.000669   1.356162   1.504240   0.902953   1.156466
    2            -0.000145   0.173980   0.008598   0.219135   0.223953
    3            -0.000254   0.172872   0.118045   0.345866   0.010394
    4            -0.000270   0.278095   0.023937   0.180570   0.248540

                      6          7          8

                  0.032828   0.024205   0.019160

    1             0.014194   0.012925   0.010318
    2             0.012290   0.001650   0.001300
    3             0.003240   0.000172   0.007446
    4             0.003103   0.009458   0.000097
 WARNING! MCSCF POPULATIONS SHOWN ABOVE ARE FOR THE NATURAL ORBITALS.
 IGNORE THE ABOVE DATA FOR MCSCF FUNCTIONS WHICH ARE NOT OF -FORS- TYPE.
 THE FOLLOWING POPULATIONS ARE CORRECT FOR ANY MCSCF WAVEFUNCTION.

               ----- POPULATIONS IN EACH AO -----
                             MULLIKEN      LOWDIN
              1  N  1  S      2.00230     1.90307
              2  N  1  S      0.81945     0.57821
              3  N  1  S      0.69693     0.41251
              4  N  1  X      0.73777     0.67973
              5  N  1  Y      0.63692     0.55541
              6  N  1  Z      0.85971     0.80871
              7  N  1  X      0.39268     0.46062
              8  N  1  Y      0.26949     0.39234
              9  N  1  Z      0.52595     0.56411
             10  N  1 XX      0.00057     0.15391
             11  N  1 YY      0.00535     0.19188
             12  N  1 ZZ      0.00035     0.14388
             13  N  1 XY      0.00557     0.00212
             14  N  1 XZ      0.00489     0.01055
             15  N  1 YZ      0.00000     0.00930
             16  H  2  S      0.53580     0.41397
             17  H  2  S      0.05258     0.15180
             18  H  2  X      0.00941     0.02801
             19  H  2  Y      0.03117     0.05076
             20  H  2  Z      0.01181     0.02772
             21  H  3  S      0.57023     0.44588
             22  H  3  S      0.03170     0.14797
             23  H  3  X      0.01032     0.02327
             24  H  3  Y      0.03469     0.06008
             25  H  3  Z      0.01084     0.02948
             26  H  4  S      0.62748     0.48295
             27  H  4  S      0.05658     0.14902
             28  H  4  X      0.02855     0.05255
             29  H  4  Y      0.01183     0.02870
             30  H  4  Z      0.01909     0.04148

          ----- MULLIKEN ATOMIC OVERLAP POPULATIONS -----
          (OFF-DIAGONAL ELEMENTS NEED TO BE MULTIPLIED BY 2)

             1           2           3           4

    1    6.1246812
    2    0.2573642   0.3993479
    3    0.3024232  -0.0055745   0.3658321
    4    0.2734605  -0.0103769  -0.0049008   0.4853478

          TOTAL MULLIKEN AND LOWDIN ATOMIC POPULATIONS
       ATOM         MULL.POP.    CHARGE          LOW.POP.     CHARGE
    1 N             6.957929    0.042071         6.866364    0.133636
    2 H             0.640761    0.359239         0.672262    0.327738
    3 H             0.657780    0.342220         0.706675    0.293325
    4 H             0.743530    0.256470         0.754699    0.245301

          MULLIKEN SPHERICAL HARMONIC POPULATIONS
       ATOM           S       P       D      F      G      H      I    TOTAL
    1 N             3.52    3.42    0.02   0.00   0.00   0.00   0.00    6.96
    2 H             0.59    0.05    0.00   0.00   0.00   0.00   0.00    0.64
    3 H             0.60    0.06    0.00   0.00   0.00   0.00   0.00    0.66
    4 H             0.68    0.06    0.00   0.00   0.00   0.00   0.00    0.74

          ---------------------
          ELECTROSTATIC MOMENTS
          ---------------------

 POINT   1           X           Y           Z (BOHR)    CHARGE
                 0.000004    0.000002   -0.177185        1.00 (A.U.)
         DX          DY          DZ         /D/  (DEBYE)
     0.723203    0.372612    2.150239    2.298997
 ...... END OF PROPERTY EVALUATION ......
 CPU     0: STEP CPU TIME=     0.01 TOTAL CPU TIME=         10.9 (      0.2 MIN)
 TOTAL WALL CLOCK TIME=         10.9 SECONDS, CPU UTILIZATION IS    99.91%

     -------------------------------------------------
     GMC-PT/GMC-QDPT or general MCSCF input parameters
     -------------------------------------------------
 # of frozen core orbs. =         0 ->         0
 # of doubly occ. orbs. =         1
 # of active      orbs. =         7
 # of virtual     orbs. =        21
 # of active electrons  =         7
 # of states in CI      =         3
 Highest state in CI    =         3
 kstate =  1 1 1
 avecoe =  0.333 0.333 0.333
 State symmetry           = A           
 Assigned symmetry number = 1

 <<<Act. MO sym.: 1111111

 <<<Division of 1-ext.:  0
 <<<Division of 2-ext.:  0

     ------------------------
     Orbital canonicalization
     ------------------------

 MOs are canonicalized for core, virtual, and invariant-active orbital spaces.
 This is a part of the GMC-QDPT calculation.
 SCHWARZ INEQUALITY OVERHEAD:       465 INTEGRALS, T=        0.00
 DIRECT TRANSFORMATION SKIPS AO INTEGRAL STORAGE ON DISK.

 Averaged energy =     -55.715807326

 State #    1  Energy =     -55.853240499  S =  0.500
 State #    2  Energy =     -55.732051809  S =  0.500
 State #    3  Energy =     -55.562129670  S =  0.500

 Orbital energies for filled orbital space
  -15.981703
 Orbital energies for active orbital space
   -1.499176  -0.815204  -0.986864  -0.728098   0.293922
    0.153126   0.398738
 Orbital energies for external orbital space
    0.137800   0.202177   0.240296   0.531385   0.589701
    0.677169   0.823685   1.014187   1.064118   1.208866
    1.340859   1.427707   1.616831   1.796293   1.861649
    2.001859   2.058781   2.275842   2.546136   2.631072
    3.048623

 Zero values mean non-canonical orbitals.
 ... done with orbital canonicalization ...
 CPU     0: STEP CPU TIME=     0.62 TOTAL CPU TIME=         11.5 (      0.2 MIN)
 TOTAL WALL CLOCK TIME=         11.5 SECONDS, CPU UTILIZATION IS   100.00%

     --------------------------------------------
     PARTIAL TWO ELECTRON INTEGRAL TRANSFORMATION
     --------------------------------------------

 NUMBER OF CORE MOLECULAR ORBITALS     =    0
 NUMBER OF OCCUPIED MOLECULAR ORBITALS =    8
 TOTAL NUMBER OF MOLECULAR ORBITALS    =   29
 TOTAL NUMBER OF ATOMIC ORBITALS       =   30
 THRESHOLD FOR KEEPING TRANSFORMED 2E- INTEGRALS = 1.000E-09
 AO INTEGRALS WILL BE CALCULATED IN DIRECT MODE...
 DIRECT TRANSFORMATION SKIPS AO INTEGRAL STORAGE ON DISK.
 SCHWARZ INEQUALITY OVERHEAD:       465 INTEGRALS, T=        0.00

 PLAN A: REQUIREMENTS FOR FULLY IN-MEMORY TRANSFORMATION:
 # OF WORDS AVAILABLE =            100000000
 # OF WORDS NEEDED    =               221798

 PARALLEL ONLY WORKS WITH THE SEGMENTED ALGORITHM.
 ADJUSTING MEMORY TO USE SEGMENTED ALGORITHM.


 PLAN B: REQUIREMENTS FOR THE SEGMENTED TRANSFORMATION:
       MINIMUM=         124148 WORDS FOR 1 MOLECULAR ORBITAL PER PASS
       MAXIMUM=         221798 WORDS FOR ALL MOLECULAR ORBITALS IN 1 PASS
              (          13950 EXTRA WORDS INCLUDES 1 EXTRA ORBITAL/PASS)
 THIS RUN USES=         221798 WORDS,
 DISTRIBUTING   1 PASSES EACH CONTAINING     8 ORBITALS OVER   1 PROCESSORS.

 CHOOSING SEGMENTED PARTIAL TRANSFORMATION...
 DIRECT TRANSFORMATION SKIPS AO INTEGRAL STORAGE ON DISK.
 PASS #   1 TOOK        0.04 SECONDS.
 TOTAL NUMBER OF TRANSFORMED 2E- INTEGRALS KEPT =        29226
 ... END OF INTEGRAL TRANSFORMATION ...
 CPU     0: STEP CPU TIME=     0.04 TOTAL CPU TIME=         11.6 (      0.2 MIN)
 TOTAL WALL CLOCK TIME=         11.6 SECONDS, CPU UTILIZATION IS    99.91%

     --------     ------------------------------------------
     GMC-QDPT     Program written by H.Nakano (Kyushu Univ.)
     --------     ------------------------------------------

 *** Reference space

 Reference type: ORMAS (= Occupation restricted multiple active space)
 # of orbitals          =  7
 # of minimum electrons =  7
 # of maximum electrons =  7
 State symmetry    =    1 (input)
 2*Sz              =    1 (input)
 Spin multiplicity =    2 (input)
 Dimension of reference space =      1225  (from      3432 walks)

 Dimension of reference space =      1225  (from      1225 walks)

 <<<Ionized spaces for Ref-CI:
      0:         1225 /   -1-0:         1960 /  0-1-0:         2891

 ***                    ***
 *** Reference space CI ***
 ***                    ***

 Converged after   29 iterations

 Reference wavefunctions:

 State #    1  Energy =     -55.853240499  S =  0.500

      Det      Coef    Occupancy (Ignoring core)
      ---      ----    --------- --------- -----
        1    0.971573  11110001110000
       71    0.095044  11110001011000
      179    0.055078  10111001010100
      393    0.056284  10110101010010
      717    0.054630  11010011100001

 State #    2  Energy =     -55.732051809  S =  0.500

      Det      Coef    Occupancy (Ignoring core)
      ---      ----    --------- --------- -----
        1    0.099278  11110001110000
       71   -0.975931  11110001011000
      822    0.055608  11010011001001

 State #    3  Energy =     -55.562129670  S =  0.500

      Det      Coef    Occupancy (Ignoring core)
      ---      ----    --------- --------- -----
       36   -0.975731  11110001101000
      249   -0.056777  10111001001100
      463   -0.056852  10110101001010

 Davidson method: CPU/Wall time =           0.43 /           0.43 sec.

 Oscillator strength (invalid if E(1)/=E(GS)):
 -----------------------------------------
   State                        f
 -----------------------------------------
     2     F(REF-CI)=        0.0018161803
     3     F(REF-CI)=        0.0042558471
 -----------------------------------------

 Dipole moment matrix elements, x, y, z, in A.U.

 Dimension of ionized spaces for PT:
 (N-2) space:         1715 /  (N-1) space:         2842 /  N space:         2891
 (N+1) space:         2842 /  (N+2) space:         1715

 <<<Ionized spaces for internal:
         0:         1225 /      -1-0:         1960 /     0-1-0:         2891
  -1-0-1-0:         2842 / 0-1-0-1-0:         3381

 Diagonal elements of averaged one-particle density matrix:
       2       3       4       5       6       7       8
  0.9930  0.9846  0.9870  0.9911  0.0139  0.0191  0.0113
  0.9880  0.6566  0.6615  0.6617  0.0107  0.0135  0.0081

 Orbital energies:
 -------- Doubly-occupied orbitals (highest several orbs.) -------
             1
 -1.598170D+01
 -------- Active orbitals ----------------------------------------
             2            3            4            5            6
 -1.499176D+00-8.152041D-01-9.868636D-01-7.280985D-01 2.939222D-01
             7            8
  1.531262D-01 3.987381D-01
 -------- External orbitals (lowest several orbs.) ---------------
             9           10           11           12           13
  1.377997D-01 2.021771D-01 2.402959D-01 5.313850D-01 5.897013D-01
            14           15           16           17           18
  6.771690D-01 8.236848D-01 1.014187D+00 1.064118D+00 1.208866D+00

 *** Quasi-degeneracy checking

 === Det (|Ci| > 1.0D-01 and dE < 5.0D-03)

 # of small denominators (single excitations)
 State       dEmin  dE < 5.0D-03  dE < 5.0D-04  dE < 5.0D-05  dE < 5.0D-06
 ----- ----------- ------------- ------------- ------------- -------------
     1    5.00D-03             0             0             0             0
     2    5.00D-03             0             0             0             0
     3    5.00D-03             0             0             0             0

 # of small denominators (double excitations)
 State       dEmin  dE < 5.0D-03  dE < 5.0D-04  dE < 5.0D-05  dE < 5.0D-06
 ----- ----------- ------------- ------------- ------------- -------------
     1    5.00D-03             0             0             0             0
     2    5.00D-03             0             0             0             0
     3    5.00D-03             0             0             0             0

 *** Zeroth-Order Setup (Granovsky's zeroth-order vectors)
 Zeroth-order effective Hamiltonian
  (= Sum_i e(i)*<I|a+(i)a(i)|J> ):
                   1            2            3
     1 -7.222914D+00
     2 -1.481142D-02-7.156868D+00
     3  1.020339D-03-5.421546D-03-6.974142D+00

 Zeroth-order vectors:
 State #    1
       MC st            1           2           3
       Coeff    9.779D-01   2.093D-01   5.436D-04
 State #    2
       MC st            2           1           3
       Coeff   -9.774D-01   2.092D-01  -3.067D-02
 State #    3
       MC st            3           2           1
       Coeff    9.995D-01  -3.011D-02   5.888D-03

 *** GMC-QDPT computation

 (Integral reading:  CPU/Wall time =           0.00 /           0.00 sec.)

 One-external:
   0 -ionized terms: CPU/Wall time =           0.03 /           0.03 sec.
 (-1)-ionized terms: CPU/Wall time =           0.09 /           0.09 sec.
 (+1)-ionized terms: CPU/Wall time =           0.02 /           0.02 sec.
 (+1)-ionized terms: CPU/Wall time =           0.01 /           0.00 sec.
 (+2)-ionized terms: CPU/Wall time =           0.00 /           0.01 sec.

 Internal:
 # of macro loops for internal contribution =         1 (input)
 Loop:    1
 Dimension of internal CISD space     =         0  (after screening)
 Space construction: CPU/Wall time =           0.02 /           0.01 sec.
 Internal terms:     CPU/Wall time =           0.00 /           0.00 sec.

 Two-external:
   0 -ionized terms: CPU/Wall time =           0.06 /           0.07 sec.
 (-1)-ionized terms: CPU/Wall time =           1.00 /           1.00 sec.
 (-2)-ionized terms: CPU/Wall time =           0.17 /           0.17 sec.

 Total time:         CPU/Wall time =           1.40 /           1.40 sec.

 ***                  ***
 *** GMC-QDPT Results ***
 ***                  ***

 Diagonal elements of effective Hamiltonian:
 Heff(  1) =   -55.94739748
 Heff(  2) =   -55.84417654
 Heff(  3) =   -55.67349511

 Off-diagonal elements of effective Hamiltonian:
                   1            2
     2 -2.205377D-02
     3 -5.866197D-05-5.009982D-03

 ******** GMC-QDPT energies ********
 ----------------------------------------------------------------------------
   State                        1st order                           2nd order
 ----------------------------------------------------------------------------
     1     E(REF-CI)=      -55.8532404991   E(GMC-QDPT2)=      -55.9519160056
     2     E(REF-CI)=      -55.7320518085   E(GMC-QDPT2)=      -55.8398062165
     3     E(REF-CI)=      -55.5621296703   E(GMC-QDPT2)=      -55.6733469085
 ----------------------------------------------------------------------------

 Excitation energies (invalid if E(1)/=E(GS)):
 ----------------------------------------------------------------------------
   State                        1st order                           2nd order
 ----------------------------------------------------------------------------

     TZ Sorted GMC-PT ENERGIES:
         1      -55.9519160056
         2      -55.8398062165
         3      -55.6733469085
     2     E(REF-CI)=        3.2977139 eV   E(GMC-QDPT2)=        3.0506643 eV
     3     E(REF-CI)=        7.9215332 eV   E(GMC-QDPT2)=        7.5802551 eV
 ----------------------------------------------------------------------------

 Main characters of perturbed GMC-QDPT states:

 State #    1  Energy =     -55.951916006  S =  0.500

      Det      Coef    Occupancy (Ignoring core)
      ---      ----    --------- --------- -----
        1    0.972397  11110001110000
       71    0.086537  11110001011000
      179    0.055211  10111001010100
      393    0.056087  10110101010010
      717    0.054640  11010011100001

 State #    2  Energy =     -55.839806217  S =  0.500

      Det      Coef    Occupancy (Ignoring core)
      ---      ----    --------- --------- -----
        1    0.090777  11110001110000
       71   -0.976740  11110001011000
      822    0.055644  11010011001001

 State #    3  Energy =     -55.673346909  S =  0.500

      Det      Coef    Occupancy (Ignoring core)
      ---      ----    --------- --------- -----
       36   -0.975740  11110001101000
      249   -0.056754  10111001001100
      463   -0.056865  10110101001010

 <<<Max |V/de| = 2.662D-02  Thresh = 1.000D+00

 Oscillator strength (invalid if E(1)/=E(GS)):
 ----------------------------------------------------------------------------
   State                        1st order                           2nd order
 ----------------------------------------------------------------------------
     2     F(REF-CI)=        0.0018161803     F(GMC-PT2)=        0.0017552638
     3     F(REF-CI)=        0.0042558471     F(GMC-PT2)=        0.0041696957
 ----------------------------------------------------------------------------

 Dipole moment matrix elements, x, y, z, in A.U.
States    1    1        0.2758074738        0.1631064618        0.6846632891
States    1    2       -0.0225557099       -0.0209801711       -0.1501201126
States    1    3       -0.0340434306       -0.1290973288        0.0680244095
States    2    1       -0.0225557099       -0.0209801711       -0.1501201126
States    2    2        0.3014535406       -0.0364670080        0.3186038355
States    2    3        0.0710168106       -0.1469202610        0.0014402138
States    3    1       -0.0340434306       -0.1290973288        0.0680244095
States    3    2        0.0710168106       -0.1469202610        0.0014402138
States    3    3        0.4538535331        0.3759824252        0.2709850260

 Oscillator strength (valid only when positive): 
 ----------------------------------------------------------------------------
  States                        1st order                           2nd order
 ----------------------------------------------------------------------------
  1  1     F(REF-CI)=        0.0000000000     F(GMC-PT2)=        0.0000000000
  1  2     F(REF-CI)=       -0.0018161803     F(GMC-PT2)=       -0.0017552638
  1  3     F(REF-CI)=       -0.0042558471     F(GMC-PT2)=       -0.0041696957
  2  1     F(REF-CI)=        0.0018161803     F(GMC-PT2)=        0.0017552638
  2  2     F(REF-CI)=        0.0000000000     F(GMC-PT2)=        0.0000000000
  2  3     F(REF-CI)=       -0.0030575346     F(GMC-PT2)=       -0.0029553213
  3  1     F(REF-CI)=        0.0042558471     F(GMC-PT2)=        0.0041696957
  3  2     F(REF-CI)=        0.0030575346     F(GMC-PT2)=        0.0029553213
  3  3     F(REF-CI)=        0.0000000000     F(GMC-PT2)=        0.0000000000
 CPU     0: STEP CPU TIME=     1.89 TOTAL CPU TIME=         13.5 (      0.2 MIN)
 TOTAL WALL CLOCK TIME=         13.5 SECONDS, CPU UTILIZATION IS   100.00%

     !!! DIABATIZATION FOR REF CI STATES !!!

 *******************************************************
          $DMO GROUP FOUND IN THE INPUT.
        DIABATIZATION OF ADIABATIC STATES BEGINS.
     PROGRAMMED BY TAO ZENG (CARLETON UNIVERSITY).
               Email: toby.zeng@carleton.ca
     See T. Zeng, J. Chem. Phys. 2017, 146, 144103
 *******************************************************

 *************************************************************************
     STEP 1: TRANSFORMATION OF ADIABATIC STATES TO THE DMO REPRESENTATION
         See Atchity and Ruedenberg, J. Chem. Phys. 1999, 111, 2910
 *************************************************************************

Read in Diabatic Molecualr Orbitals:

                      1          2          3          4          5

    1  N  1  S    0.008609   0.000000   0.000000  -0.013219   0.279491
    2  N  1  S    0.442914  -0.000000   0.000000  -0.184329   0.867803
    3  N  1  S    0.276913   0.000000  -0.000000  -0.288315   0.144236
    4  N  1  X   -0.000000   0.493155  -0.024636  -0.000000  -0.000000
    5  N  1  Y    0.000000   0.024636   0.493155  -0.000000   0.000000
    6  N  1  Z    0.090197   0.000000   0.000000   0.593421   0.705309
    7  N  1  X   -0.000000   0.210628  -0.010522   0.000000   0.000000
    8  N  1  Y    0.000000   0.010522   0.210628  -0.000000  -0.000000
    9  N  1  Z   -0.004381   0.000000   0.000000   0.381592  -0.106092
   10  N  1 XX   -0.000457   0.010719  -0.000535  -0.012387   0.006153
   11  N  1 YY   -0.000457  -0.010719   0.000535  -0.012387   0.006153
   12  N  1 ZZ    0.000914  -0.000000   0.000000   0.024773  -0.012306
   13  N  1 XY    0.000000  -0.000618  -0.012377  -0.000000   0.000000
   14  N  1 XZ   -0.000000   0.026529  -0.001325  -0.000000   0.000000
   15  N  1 YZ    0.000000   0.001325   0.026529  -0.000000   0.000000
   16  H  2  S    0.194462  -0.176074   0.343485   0.112865  -0.523343
   17  H  2  S    0.003574  -0.023812   0.046452   0.024014  -0.054445
   18  H  2  X    0.018760   0.009101   0.022834   0.009336  -0.039151
   19  H  2  Y   -0.032493   0.022287  -0.020044  -0.016171   0.067811
   20  H  2  Z   -0.009251   0.008464  -0.016511   0.018769  -0.010566
   21  H  3  S    0.194462  -0.209430  -0.324227   0.112865  -0.523343
   22  H  3  S    0.003574  -0.028322  -0.043847   0.024014  -0.054445
   23  H  3  X    0.018760   0.006781  -0.023627   0.009336  -0.039151
   24  H  3  Y    0.032493  -0.024174  -0.017723   0.016171  -0.067811
   25  H  3  Z   -0.009251   0.010067   0.015585   0.018769  -0.010566
   26  H  4  S    0.194462   0.385503  -0.019258   0.112865  -0.523343
   27  H  4  S    0.003574   0.052134  -0.002604   0.024014  -0.054445
   28  H  4  X   -0.037519  -0.032295   0.001613  -0.018672   0.078302
   29  H  4  Y    0.000000   0.001067   0.021353  -0.000000   0.000000
   30  H  4  Z   -0.009251  -0.018530   0.000926   0.018769  -0.010566

                      6          7

    1  N  1  S    0.000000  -0.000000
    2  N  1  S    0.000000  -0.000000
    3  N  1  S   -0.000000   0.000000
    4  N  1  X   -0.930415  -0.002083
    5  N  1  Y   -0.002083   0.930415
    6  N  1  Z   -0.000000   0.000000
    7  N  1  X   -0.046866  -0.000105
    8  N  1  Y   -0.000105   0.046866
    9  N  1  Z   -0.000000   0.000000
   10  N  1 XX    0.001538   0.000003
   11  N  1 YY   -0.001538  -0.000003
   12  N  1 ZZ   -0.000000   0.000000
   13  N  1 XY   -0.000004   0.001776
   14  N  1 XZ    0.039985   0.000090
   15  N  1 YZ    0.000090  -0.039985
   16  H  2  S   -0.362630  -0.631354
   17  H  2  S   -0.065964  -0.114846
   18  H  2  X    0.002763  -0.037520
   19  H  2  Y    0.037435   0.040736
   20  H  2  Z    0.001882   0.003276
   21  H  3  S   -0.365454   0.629724
   22  H  3  S   -0.066477   0.114549
   23  H  3  X    0.002595   0.037532
   24  H  3  Y   -0.037617   0.040567
   25  H  3  Z    0.001896  -0.003268
   26  H  4  S    0.728084   0.001630
   27  H  4  S    0.132441   0.000297
   28  H  4  X   -0.062317  -0.000140
   29  H  4  Y    0.000055  -0.024345
   30  H  4  Z   -0.003778  -0.000008

NUMBER OF SUB ACTIVE SPACES:   1
ROTATE ACTIVE MOS TO DMOS IN EACH SUB-SPACE

SPACE  1:

OVERLAP BETWEEN ORTHONORMAL AND PRE-ORTHONORMAL REF. DMOS

             1           2           3           4           5

    1    0.9782556   0.0321585   0.0026066  -0.0074615   0.0023614
    2    0.0321585   0.9105805   0.0490883   0.0407313  -0.0626246
    3    0.0026066   0.0490883   1.0189258   0.0129738  -0.0365101
    4   -0.0074615   0.0407313   0.0129738   0.9949618  -0.0099152
    5    0.0023614  -0.0626246  -0.0365101  -0.0099152   1.1233020
    6   -0.0000626  -0.0581640   0.0511548   0.0412016   0.0236933
    7    0.0022666  -0.0327594  -0.0356649  -0.0273767   0.0510329

             6           7

    1   -0.0000626   0.0022666
    2   -0.0581640  -0.0327594
    3    0.0511548  -0.0356649
    4    0.0412016  -0.0273767
    5    0.0236933   0.0510329
    6    1.0689986   0.0022704
    7    0.0022704   1.0316430
REFERENCE DMOS AFTER ORTHONORMALIZATION:

                      1          2          3          4          5

    1  N  1  S    0.007576   0.016322   0.008132  -0.011645   0.250506
    2  N  1  S    0.448186   0.041925   0.025868  -0.176998   0.775313
    3  N  1  S    0.280210   0.011404   0.006008  -0.287701   0.126558
    4  N  1  X   -0.016213   0.491223  -0.003499   0.015628   0.044653
    5  N  1  Y   -0.004253   0.028481   0.515231   0.018360  -0.022821
    6  N  1  Z    0.094951   0.009559   0.015749   0.604026   0.635525
    7  N  1  X   -0.007684   0.232111  -0.019212  -0.007768   0.012636
    8  N  1  Y   -0.000761   0.001910   0.209155  -0.000898   0.004729
    9  N  1  Z   -0.000561  -0.023636  -0.005907   0.384592  -0.092899
   10  N  1 XX   -0.001005   0.013007  -0.000906  -0.013031   0.006018
   11  N  1 YY   -0.000206  -0.011117   0.001446  -0.011917   0.004876
   12  N  1 ZZ    0.001211  -0.001890  -0.000541   0.024947  -0.010895
   13  N  1 XY    0.000031   0.000020  -0.012150   0.000166  -0.000465
   14  N  1 XZ   -0.001067   0.032156  -0.004739  -0.002869   0.000749
   15  N  1 YZ    0.000042  -0.001102   0.024916  -0.001257   0.002491
   16  H  2  S    0.210992  -0.298353   0.331634   0.117572  -0.436886
   17  H  2  S    0.005416  -0.040919   0.045222   0.024587  -0.042771
   18  H  2  X    0.019188   0.004623   0.019574   0.007731  -0.032447
   19  H  2  Y   -0.034683   0.035300  -0.019525  -0.017647   0.059175
   20  H  2  Z   -0.009564   0.009382  -0.017202   0.018537  -0.009488
   21  H  3  S    0.209158  -0.263168  -0.287566   0.155567  -0.510090
   22  H  3  S    0.004990  -0.034439  -0.036686   0.031193  -0.055101
   23  H  3  X    0.019099   0.006699  -0.023906   0.010058  -0.037017
   24  H  3  Y    0.034549  -0.033018  -0.015187   0.020045  -0.063728
   25  H  3  Z   -0.009638   0.009272   0.014243   0.018059  -0.008203
   26  H  4  S    0.186332   0.434172  -0.092418   0.064942  -0.461210
   27  H  4  S    0.001882   0.062250  -0.013787   0.016103  -0.048212
   28  H  4  X   -0.037557  -0.033267   0.008893  -0.014686   0.069592
   29  H  4  Y    0.000011  -0.000658   0.020299  -0.000817   0.001681
   30  H  4  Z   -0.008561  -0.022058   0.001655   0.019812  -0.010296

                      6          7

    1  N  1  S   -0.004579  -0.011908
    2  N  1  S   -0.009204  -0.041789
    3  N  1  S    0.008663  -0.013960
    4  N  1  X   -0.845088   0.013559
    5  N  1  Y   -0.027216   0.922279
    6  N  1  Z   -0.037563  -0.014687
    7  N  1  X   -0.030286   0.005857
    8  N  1  Y   -0.010185   0.052486
    9  N  1  Z   -0.013797   0.013878
   10  N  1 XX    0.002559  -0.000262
   11  N  1 YY   -0.001760  -0.000859
   12  N  1 ZZ   -0.000799   0.001121
   13  N  1 XY    0.000580   0.001328
   14  N  1 XZ    0.039473   0.000746
   15  N  1 YZ   -0.001094  -0.038087
   16  H  2  S   -0.364921  -0.584927
   17  H  2  S   -0.065866  -0.108158
   18  H  2  X    0.002394  -0.033782
   19  H  2  Y    0.037162   0.036531
   20  H  2  Z    0.002581   0.003856
   21  H  3  S   -0.338422   0.621757
   22  H  3  S   -0.062524   0.112354
   23  H  3  X    0.004290   0.037813
   24  H  3  Y   -0.035704   0.041437
   25  H  3  Z    0.001085  -0.001477
   26  H  4  S    0.716792   0.034724
   27  H  4  S    0.128378   0.004313
   28  H  4  X   -0.061499  -0.004499
   29  H  4  Y   -0.000913  -0.023020
   30  H  4  Z   -0.005350   0.000414

 -------------------------------------------
       MAXIMIZING MORMO OVERLAP TERM        
 -------------------------------------------
   SWEEP    VALUE       PROGRESS
     0     5.04194
     1     6.95002     1.90808151
     2     6.95849     0.00846803
     3     6.95849     0.00000093
     4     6.95849     0.00000000
     5     6.95849     0.00000000
 THE ROTATION IS DONE
FLIPPING SIGN FOR ORBITAL   7
ACTIVE ORBITALS AFTER MORMO:

                      1          2          3          4          5

    1  N  1  S    0.006034   0.026363   0.007066  -0.012135   0.204931
    2  N  1  S    0.426786   0.063813   0.009986  -0.188210   0.719177
    3  N  1  S    0.327508  -0.055334   0.015559  -0.273312   0.191639
    4  N  1  X   -0.001074   0.444845   0.008109   0.037454   0.021449
    5  N  1  Y   -0.008409   0.043203   0.502742   0.015879  -0.027467
    6  N  1  Z    0.083644   0.034157   0.020583   0.602250   0.624434
    7  N  1  X   -0.024708   0.295121  -0.051049  -0.052326   0.048096
    8  N  1  Y    0.004390  -0.032400   0.197551  -0.017655   0.019428
    9  N  1  Z    0.023829  -0.067305  -0.018062   0.385317  -0.076046
   10  N  1 XX   -0.004871   0.025269  -0.002500  -0.014582   0.034070
   11  N  1 YY    0.004665  -0.025274   0.003021  -0.007698  -0.038228
   12  N  1 ZZ    0.000206   0.000006  -0.000520   0.022279   0.004158
   13  N  1 XY    0.003172  -0.001791  -0.003154  -0.002466  -0.021937
   14  N  1 XZ    0.000876   0.021816  -0.005346   0.001844  -0.039659
   15  N  1 YZ    0.002788  -0.001907   0.017230  -0.003097  -0.013443
   16  H  2  S    0.187826  -0.207381   0.323337   0.105960  -0.423170
   17  H  2  S    0.007860  -0.093186   0.071260   0.033725  -0.057824
   18  H  2  X    0.000707   0.021274   0.000635  -0.000310  -0.015451
   19  H  2  Y   -0.031423   0.018137  -0.034367  -0.014262   0.049195
   20  H  2  Z   -0.005945  -0.000246  -0.016421   0.018530  -0.020963
   21  H  3  S    0.187433  -0.229791  -0.307580   0.125921  -0.493989
   22  H  3  S    0.002885  -0.045977  -0.030971   0.035252  -0.065290
   23  H  3  X    0.009502   0.016051  -0.015898   0.002339  -0.015355
   24  H  3  Y    0.033740  -0.024380  -0.033894   0.013456  -0.057723
   25  H  3  Z   -0.003320   0.003566   0.009135   0.021277  -0.013718
   26  H  4  S    0.184418   0.399566  -0.054761   0.085770  -0.482516
   27  H  4  S    0.000062   0.116413  -0.044015   0.019139  -0.063848
   28  H  4  X   -0.031681  -0.021397   0.000712  -0.019675   0.056940
   29  H  4  Y   -0.006908  -0.008763   0.020412  -0.001458  -0.007781
   30  H  4  Z   -0.014043  -0.030000  -0.000839   0.017295  -0.008050

                      6          7

    1  N  1  S    0.036631  -0.046638
    2  N  1  S    0.089231  -0.098341
    3  N  1  S   -0.122714   0.067122
    4  N  1  X   -0.843122  -0.002051
    5  N  1  Y   -0.005044   0.913768
    6  N  1  Z   -0.073309  -0.015030
    7  N  1  X   -0.033783   0.034604
    8  N  1  Y   -0.046717   0.079834
    9  N  1  Z    0.012313   0.030707
   10  N  1 XX    0.042861   0.011276
   11  N  1 YY   -0.050879  -0.000555
   12  N  1 ZZ    0.008018  -0.010721
   13  N  1 XY    0.011712  -0.040441
   14  N  1 XZ    0.019757  -0.000947
   15  N  1 YZ    0.010843  -0.053184
   16  H  2  S   -0.290324  -0.576776
   17  H  2  S   -0.111401  -0.156984
   18  H  2  X    0.029421  -0.016861
   19  H  2  Y    0.026720   0.050506
   20  H  2  Z    0.017701  -0.014405
   21  H  3  S   -0.312522   0.606403
   22  H  3  S   -0.069631   0.125072
   23  H  3  X    0.003424   0.021655
   24  H  3  Y   -0.025806   0.057798
   25  H  3  Z    0.003855   0.022260
   26  H  4  S    0.682354  -0.009663
   27  H  4  S    0.196635   0.034340
   28  H  4  X   -0.038705   0.003153
   29  H  4  Y    0.000524  -0.048335
   30  H  4  Z   -0.014233  -0.010154

Actually Used Diabatic Molecualr Orbitals:

                      1          2          3          4          5

    1  N  1  S    0.006034   0.026363   0.007066  -0.012135   0.204931
    2  N  1  S    0.426786   0.063813   0.009986  -0.188210   0.719177
    3  N  1  S    0.327508  -0.055334   0.015559  -0.273312   0.191639
    4  N  1  X   -0.001074   0.444845   0.008109   0.037454   0.021449
    5  N  1  Y   -0.008409   0.043203   0.502742   0.015879  -0.027467
    6  N  1  Z    0.083644   0.034157   0.020583   0.602250   0.624434
    7  N  1  X   -0.024708   0.295121  -0.051049  -0.052326   0.048096
    8  N  1  Y    0.004390  -0.032400   0.197551  -0.017655   0.019428
    9  N  1  Z    0.023829  -0.067305  -0.018062   0.385317  -0.076046
   10  N  1 XX   -0.004871   0.025269  -0.002500  -0.014582   0.034070
   11  N  1 YY    0.004665  -0.025274   0.003021  -0.007698  -0.038228
   12  N  1 ZZ    0.000206   0.000006  -0.000520   0.022279   0.004158
   13  N  1 XY    0.003172  -0.001791  -0.003154  -0.002466  -0.021937
   14  N  1 XZ    0.000876   0.021816  -0.005346   0.001844  -0.039659
   15  N  1 YZ    0.002788  -0.001907   0.017230  -0.003097  -0.013443
   16  H  2  S    0.187826  -0.207381   0.323337   0.105960  -0.423170
[...]

     STATE:    2
 Group Ref#    Coefficients
     1    1    0.004643
     2    2    0.955031
     3    3   -0.001410

WEIGHT OF LISTED PROTOTYPES:   91.21%

     STATE:    3
 Group Ref#    Coefficients
     1    1   -0.004018
     2    2   -0.001410
     3    3    0.948955

WEIGHT OF LISTED PROTOTYPES:   90.05%

 --------------------------------------------------
 IN DIRECT MAX. DIABATIZATION FOR GMC-QDPT

 DIRECT MAXIMIZATION (DM) WITHOUT TRUNCATING ADIABATS
 EXPANSIONS INTO THE REFERENCE CONFIGURATION SPACE
 --------------------------------------------------

 -------------------------------------------
 - DM DIABT PT HAMILTONIAN MATRIX ELEMENTS -
 -------------------------------------------
                                            
 --- DIABATIC ENERGIES (DIAGONAL ELEMENT) ---       HARTREE            EV
 STATE #  1'S GMC-PT-LEVEL DIABATIC ENERGY=     -55.935427367       0.000000000
 STATE #  2'S GMC-PT-LEVEL DIABATIC ENERGY=     -55.833728159       2.767376403
 STATE #  3'S GMC-PT-LEVEL DIABATIC ENERGY=     -55.695913605       6.517501432

 --- DIABATIC COUPLINGS (OFF DIAGONAL ELEMENTS)---  HATREE            EV
 STATE #  1 &  2'S GMC-PT-LEVEL COUPLING  =      -0.044076707      -1.199388292
 STATE #  1 &  3'S GMC-PT-LEVEL COUPLING  =      -0.022917404      -0.623614325
 STATE #  2 &  3'S GMC-PT-LEVEL COUPLING  =       0.052230011       1.421250992

 ---------------------------------------
     - ROTATION TO DIABATIC STATES -    
 ---------------------------------------
 ROWS=ADIABATIC, COLUMNS=DIABATIC STATES

             1           2           3

    1   -0.9388630  -0.3440117  -0.0138615
    2    0.3151427  -0.8748930   0.3677598
    3   -0.1386410   0.3409078   0.9298175

 ---------------------------------------
          - DIABATIC STATES -           
 ---------------------------------------

 State #    1  Energy =     -55.935427367

      Det      Coef        Coefp    Occupancy (Ignoring core)
      ---      ----        ----    --------- --------- -----
        1    0.935389   -0.935389  222+000
        8   -0.145577    0.145577  2-2+0+0
      386    0.114328   -0.114328  2+2+0-0
        4   -0.112680    0.112680  2-2++00
      176    0.108350   -0.108350  2+2+-00
        6    0.078782   -0.078782  22200+0
      393   -0.071216   -0.071216  202+020
        7    0.070192    0.070192  22-+0+0
      351   -0.065312   -0.065312  22++0-0
      717   -0.064902   -0.064902  220+002
      708    0.044001   -0.044001  2-++0+-
        3   -0.042404   -0.042404  22-++00
      141    0.041757    0.041757  22++-00
      402    0.040281   -0.040281  2+-+0-+
      215   -0.037618   -0.037618  022+200
       18   -0.036951    0.036951  2-2+00+
      705   -0.035237   -0.035237  -2+++0-
      227   -0.034857   -0.034857  +2-+-0+
      736    0.034786   -0.034786  2+2+00-
      218    0.032675   -0.032675  +-2+-+0
      390    0.032527   -0.032527  -+2++-0
       76    0.031249    0.031249  2+2-0+0
      143   -0.030328   -0.030328  220+200
      212    0.030225    0.030225  +220200
       16   -0.030080    0.030080  222000+
      113   -0.029042    0.029042  +-220+0
        5    0.027250    0.027250  -22++00
       51   -0.027107    0.027107  22+-00+
      391    0.026311   -0.026311  2+20020
      424   -0.026181   -0.026181  +-2++-0
     1051   -0.026150   -0.026150  2+++0--
      387   -0.025796    0.025796  2+20+-0
       11    0.024793   -0.024793  2-20++0
      184   -0.023694   -0.023694  -+2+-+0
      702    0.023288    0.023288  22+0+0-
      773    0.022864   -0.022864  +2-++0-
       29   -0.022851   -0.022851  2--+0++
      147    0.022782   -0.022782  220+-+0
       13    0.022630    0.022630  2--+++0
      159    0.022553   -0.022553  -2++-0+
      122    0.022495    0.022495  +2-200+
      353   -0.021785   -0.021785  220++-0
      183   -0.021360    0.021360  202+-+0
      389    0.020482    0.020482  202++-0
      561    0.020203    0.020203  2+++--0

 State #    2  Energy =     -55.833728159

      Det      Coef        Coefp    Occupancy (Ignoring core)
      ---      ----        ----    --------- --------- -----
       71   -0.935967    0.935967  2+22000
       74    0.145502   -0.145502  2022+00
       76    0.113581    0.113581  2+2-0+0
       78    0.102474   -0.102474  20220+0
      386   -0.099116    0.099116  2+2+0-0
       77    0.075425   -0.075425  2+-20+0
      106    0.074708    0.074708  +222000
      456   -0.065059   -0.065059  2++20-0
      822    0.062534   -0.062534  2+02002
      246    0.055041    0.055041  2++2-00
      813    0.048024   -0.048024  20+20+-
       36    0.045746    0.045746  22+2000
      113    0.042936   -0.042936  +-220+0
       73   -0.039981    0.039981  2+-2+00
       81    0.039592    0.039592  202-++0
      323   -0.038574    0.038574  +022-+0
       88    0.037209   -0.037209  202200+
      736    0.037110   -0.037110  2+2+00-
      320    0.036896    0.036896  0+22200
      810   -0.035812   -0.035812  -++2+0-
       86   -0.035258   -0.035258  2+2-00+
       99   -0.034468    0.034468  20-20++
      332   -0.032971    0.032971  ++-2-0+
      180   -0.032822    0.032822  -+2+200
      183   -0.032809    0.032809  202+-+0
      317    0.032075   -0.032075  ++2-200
      177    0.031550   -0.031550  2+20200
      393   -0.031487   -0.031487  202+020
      806    0.031416    0.031416  2++200-
       38   -0.031094    0.031094  2202+00
      248    0.030036   -0.030036  2+02200
       75   -0.026961   -0.026961  -+22+00
      529    0.025433    0.025433  +022+-0
      252   -0.024931   -0.024931  2+02-+0
       83    0.024616   -0.024616  20-2++0
      111    0.024531   -0.024531  +22-0+0
      807   -0.023980    0.023980  2++-+0-
      192   -0.023082    0.023082  2+-+-0+
       87   -0.022970    0.022970  2+-200+
       79   -0.022149   -0.022149  -+220+0
      534    0.021668    0.021668  0+22020
      878    0.021609    0.021609  ++-2+0-
        6    0.021508   -0.021508  22200+0
      264    0.021268   -0.021268  -++2-0+
      109    0.021152   -0.021152  +-22+00
      526   -0.020787   -0.020787  ++220-0

 State #    3  Energy =     -55.695913605

      Det      Coef        Coefp    Occupancy (Ignoring core)
      ---      ----        ----    --------- --------- -----
       36   -0.937808   -0.937808  22+2000
      246   -0.120616   -0.120616  2++2-00
      456   -0.118665   -0.118665  2++20-0
       43    0.097278    0.097278  2-+20+0
       39    0.089117    0.089117  2-+2+00
      351   -0.083916   -0.083916  22++0-0
      463    0.076799   -0.076799  20+2020
       41    0.068036   -0.068036  22+-0+0
       42   -0.064452    0.064452  22020+0
       52    0.050237   -0.050237  220200+
      472   -0.049078   -0.049078  2+020-+
       71   -0.044055    0.044055  2+22000
       38    0.043593   -0.043593  2202+00
      112   -0.042069   -0.042069  +2-20+0
      121   -0.041366    0.041366  +22-00+
       51   -0.039923    0.039923  22+-00+
       53    0.039352    0.039352  2-+200+
      285    0.038842   -0.038842  02+2200
      806   -0.037229   -0.037229  2++200-
      460   -0.035665   -0.035665  -++2+-0
      701    0.035543    0.035543  22++00-
      297    0.035051   -0.035051  +202-0+
      281    0.034847   -0.034847  +2+2-00
       64    0.034504   -0.034504  2-020++
      282    0.032891    0.032891  +2+-200
      288   -0.032397   -0.032397  +-+2-+0
      145   -0.031931   -0.031931  -2++200
      457   -0.031862    0.031862  2++-+-0
      142    0.031850    0.031850  22+0200
       73    0.031500   -0.031500  2+-2+00
      461    0.030486   -0.030486  2++-020
      148   -0.030351   -0.030351  2-++-+0
      358   -0.029972    0.029972  2-++020
       46    0.029900   -0.029900  2-+-++0
      561    0.028996    0.028996  2+++--0
       37   -0.028601    0.028601  22+-+00
       16   -0.028510    0.028510  222000+
      108   -0.027380   -0.027380  +2-2+00
      254    0.027205   -0.027205  -++2-+0
      491    0.025406   -0.025406  +2+20-0
      157    0.024135   -0.024135  220+-0+
      494    0.024010   -0.024010  +-+2+-0
        3    0.022849    0.022849  22-++00
      771    0.022600    0.022600  +22+00-
      716    0.022057    0.022057  22+0002
       77    0.021387   -0.021387  2+-20+0
      843   -0.020299   -0.020299  +202+0-

 ---------------------------------------
      - DIABATIC STATES IN CMO -        
 ---------------------------------------

 State #    1  Energy =     -55.935427367

      Det      Coef        Coefp    Occupancy (Ignoring core)
      ---      ----        ----    --------- --------- -----
        1    0.885042   -0.885042  222+000
       71    0.386399   -0.386399  2+22000
       36    0.137743    0.137743  22+2000
      393   -0.059900   -0.059900  202+020
      717   -0.052011   -0.052011  220+002
      179   -0.047155   -0.047155  202+200
      391   -0.040216    0.040216  2+20020
       17   -0.034199   -0.034199  22-+00+
      106   -0.033581   -0.033581  +222000
      357   -0.033084   -0.033084  220+020
      389    0.032785    0.032785  202++-0
        4    0.032690   -0.032690  2-2++00
        6    0.032128   -0.032128  22200+0
      394    0.031517   -0.031517  -+2+020
      402   -0.029122    0.029122  2+-+0-+
      215   -0.026729   -0.026729  022+200
      388   -0.025062   -0.025062  2+-++-0
      183   -0.024660    0.024660  202+-+0
      822   -0.024430    0.024430  2+02002
        3    0.024196    0.024196  22-++00
      144   -0.023564    0.023564  2-++200
      178    0.023164    0.023164  2+-+200
      214    0.023160    0.023160  +-2+200
      426    0.023072    0.023072  +220020
       78   -0.022929    0.022929  20220+0
      180   -0.022831    0.022831  -+2+200
      428   -0.022645   -0.022645  +-2+020
      113   -0.022631    0.022631  +-220+0
       72   -0.022549   -0.022549  2+2-+00
      706   -0.022412   -0.022412  22+00+-
      429   -0.021996   -0.021996  022+020
      143   -0.021931   -0.021931  220+200
      437    0.021084    0.021084  +2-+0-+
      709    0.021033    0.021033  -2++0+-
      109    0.020799   -0.020799  +-22+00
       51    0.020390   -0.020390  22+-00+
      366    0.020205   -0.020205  22+00-+

 State #    2  Energy =     -55.833728159

      Det      Coef        Coefp    Occupancy (Ignoring core)
      ---      ----        ----    --------- --------- -----
       71   -0.818232    0.818232  2+22000
        1    0.412210   -0.412210  222+000
       36   -0.349915   -0.349915  22+2000
      822    0.051981   -0.051981  2+02002
      113    0.040455   -0.040455  +-220+0
      462    0.040391   -0.040391  2+02020
      179   -0.031997   -0.031997  202+200
      463    0.031666   -0.031666  20+2020
        6    0.030129   -0.030129  22200+0
      320    0.026746    0.026746  0+22200
       42   -0.025893    0.025893  22020+0
      811    0.025779   -0.025779  2++-0+-
      109   -0.024867    0.024867  +-22+00
      107   -0.024608    0.024608  +22-+00
      183   -0.022165    0.022165  202+-+0
      177    0.022074   -0.022074  2+20200
      813   -0.021912    0.021912  20+20+-
       79   -0.021356   -0.021356  -+220+0
      534    0.021015    0.021015  0+22020
      357   -0.021013   -0.021013  220+020
      531    0.020322   -0.020322  ++2-020
       78    0.020201   -0.020201  20220+0

 State #    3  Energy =     -55.695913605

      Det      Coef        Coefp    Occupancy (Ignoring core)
      ---      ----        ----    --------- --------- -----
       36   -0.900558   -0.900558  22+2000
       71    0.378245   -0.378245  2+22000
      249    0.063034   -0.063034  20+2200
      463    0.047559   -0.047559  20+2020
      112   -0.043359   -0.043359  +2-20+0
      253    0.039705    0.039705  20+2-+0
      121    0.037115   -0.037115  +22-00+
      356    0.036502    0.036502  22+0020
      248   -0.035856    0.035856  2+02200
        7    0.035394    0.035394  22-+0+0
      459   -0.029595    0.029595  20+2+-0
      250    0.029552    0.029552  -++2200
       41   -0.029031    0.029031  22+-0+0
      285    0.027315   -0.027315  02+2200
       76    0.026338    0.026338  2+2-0+0
      358    0.025208   -0.025208  2-++020
        8   -0.024930    0.024930  2-2+0+0
      499    0.024805   -0.024805  02+2020
        1   -0.024614    0.024614  222+000
      498    0.024183   -0.024183  +-+2020
       52   -0.024104    0.024104  220200+
      359   -0.023754   -0.023754  -2++020
      284   -0.023593    0.023593  +-+2200
      109   -0.023380    0.023380  +-22+00
       44    0.023351   -0.023351  -2+20+0
      367   -0.023313    0.023313  220+0-+
      716    0.023118    0.023118  22+0002
      496    0.022664    0.022664  +2+-020
      771   -0.022241   -0.022241  +22+00-
      464   -0.022105   -0.022105  -++2020
       77    0.021603   -0.021603  2+-20+0
      461   -0.020950    0.020950  2++-020
      262   -0.020894   -0.020894  2+02-0+
      472    0.020691    0.020691  2+020-+
      491    0.020008   -0.020008  +2+20-0

 ---------------------------------------
    -DIABATIC STATES IN PROTOTYPES-     
 ---------------------------------------

     STATE:    1
 Group Ref#    Coefficients
     1    1    0.955411
     2    2    0.004642
     3    3   -0.004004

WEIGHT OF LISTED PROTOTYPES:   91.28%

     STATE:    2
 Group Ref#    Coefficients
     1    1    0.004644
     2    2    0.955031
     3    3   -0.001405

WEIGHT OF LISTED PROTOTYPES:   91.21%

     STATE:    3
 Group Ref#    Coefficients
     1    1   -0.004032
     2    2   -0.001414
     3    3    0.948955

WEIGHT OF LISTED PROTOTYPES:   90.05%

     DIRECT MAX. DIABATIZATION FINISHED    
 CPU     0: STEP CPU TIME=     0.24 TOTAL CPU TIME=         13.7 (      0.2 MIN)
 TOTAL WALL CLOCK TIME=         13.7 SECONDS, CPU UTILIZATION IS    99.93%

DIABATS FOR SPIN-ORBIT CALCULATION ARE READY

TRANSITION DIPOLES BETWEEN ADIABATS (in A.U.):

STATE PAIR      X         Y         Z
    1    1  0.275807  0.163106  0.684663
    2    1 -0.022556 -0.020980 -0.150120
    2    2  0.301454 -0.036467  0.318604
    3    1 -0.034043 -0.129097  0.068024
    3    2  0.071017 -0.146920  0.001440
    3    3  0.453854  0.375982  0.270985


TRANSITION DIPOLES BETWEEN DIABATS (in A.U.):

STATE PAIR      X         Y         Z
    1    1  0.280055  0.139022  0.746773
    2    1 -0.006052  0.031559 -0.004753
    2    2  0.268175  0.140374  0.249212
    3    1  0.034746  0.033653  0.004494
    3    2  0.012947  0.277093 -0.019249
    3    3  0.482885  0.223225  0.278267

TRANSITION DIPOLES BETWEEN DIRECT MAX. DIABATS (in A.U.):

STATE PAIR      X         Y         Z
    1    1  0.280056  0.139023  0.746773
    2    1 -0.006052  0.031563 -0.004752
    2    2  0.268175  0.140377  0.249212
    3    1  0.034749  0.033653  0.004487
    3    2  0.012948  0.277093 -0.019248
    3    3  0.482883  0.223222  0.278267
 No $TRANST Group Found.
 Quit without doing spin-orbit coupling
 ..... DONE WITH MP2 ENERGY .....
 CPU     0: STEP CPU TIME=     0.01 TOTAL CPU TIME=         13.7 (      0.2 MIN)
 TOTAL WALL CLOCK TIME=         13.7 SECONDS, CPU UTILIZATION IS   100.00%
            100000000  WORDS OF DYNAMIC MEMORY USED
 EXECUTION OF GAMESS TERMINATED NORMALLY Wed Nov 16 19:48:32 2022
 DDI: 715512 bytes (0.7 MB / 0 MWords) used by master data server.

 ----------------------------------------
 CPU timing information for all processes
 ========================================
 0: 13.412 + 0.312 = 13.724
 ----------------------------------------
Note: The following floating-point exceptions are signalling: IEEE_DENORMAL
 ddikick.x: exited gracefully.
unset echo
----- accounting info -----
Files used on the master node io002 were:
-rw-r--r-- 1 bsonghao nooijen   20739 Nov 16 19:48 /scratch/bsonghao/nh3_diabatization_2d_at_mode_7_8_dist0.3_0.6.F05
-rw-r--r-- 1 bsonghao nooijen  363520 Nov 16 19:48 /scratch/bsonghao/nh3_diabatization_2d_at_mode_7_8_dist0.3_0.6.F09
-rw-r--r-- 1 bsonghao nooijen 1995920 Nov 16 19:48 /scratch/bsonghao/nh3_diabatization_2d_at_mode_7_8_dist0.3_0.6.F10
-rw-r--r-- 1 bsonghao nooijen  131264 Nov 16 19:48 /scratch/bsonghao/nh3_diabatization_2d_at_mode_7_8_dist0.3_0.6.F13
-rw-r--r-- 1 bsonghao nooijen  180312 Nov 16 19:48 /scratch/bsonghao/nh3_diabatization_2d_at_mode_7_8_dist0.3_0.6.F15
-rw-r--r-- 1 bsonghao nooijen       0 Nov 16 19:48 /scratch/bsonghao/nh3_diabatization_2d_at_mode_7_8_dist0.3_0.6.F16
-rw-r--r-- 1 bsonghao nooijen    9808 Nov 16 19:48 /scratch/bsonghao/nh3_diabatization_2d_at_mode_7_8_dist0.3_0.6.F70
-rw-r--r-- 1 bsonghao nooijen    9808 Nov 16 19:48 /scratch/bsonghao/nh3_diabatization_2d_at_mode_7_8_dist0.3_0.6.F71
-rw-r--r-- 1 bsonghao nooijen   19608 Nov 16 19:48 /scratch/bsonghao/nh3_diabatization_2d_at_mode_7_8_dist0.3_0.6.F72
-rw-r--r-- 1 bsonghao nooijen   19608 Nov 16 19:48 /scratch/bsonghao/nh3_diabatization_2d_at_mode_7_8_dist0.3_0.6.F73
-rw-r--r-- 1 bsonghao nooijen 1920824 Nov 16 19:48 /scratch/bsonghao/nh3_diabatization_2d_at_mode_7_8_dist0.3_0.6.F74
-rw-r--r-- 1 bsonghao nooijen       0 Nov 16 19:48 /scratch/bsonghao/nh3_diabatization_2d_at_mode_7_8_dist0.3_0.6.F75
-rw-r--r-- 1 bsonghao nooijen   58848 Nov 16 19:48 /scratch/bsonghao/nh3_diabatization_2d_at_mode_7_8_dist0.3_0.6.F76
-rw-r--r-- 1 bsonghao nooijen       0 Nov 16 19:48 /scratch/bsonghao/nh3_diabatization_2d_at_mode_7_8_dist0.3_0.6.F77
-rw-r--r-- 1 bsonghao nooijen    1864 Nov 16 19:48 /scratch/bsonghao/nh3_diabatization_2d_at_mode_7_8_dist0.3_0.6.F78
-rw-r--r-- 1 bsonghao nooijen   39208 Nov 16 19:48 /scratch/bsonghao/nh3_diabatization_2d_at_mode_7_8_dist0.3_0.6.F79
-rw-r--r-- 1 bsonghao nooijen     104 Nov 16 19:48 /scratch/bsonghao/nh3_diabatization_2d_at_mode_7_8_dist0.3_0.6.F80
-rw-r--r-- 1 bsonghao nooijen   13472 Nov 16 19:48 /scratch/bsonghao/nh3_diabatization_2d_at_mode_7_8_dist0.3_0.6.F81
-rw-r--r-- 1 bsonghao nooijen      16 Nov 16 19:48 /scratch/bsonghao/nh3_diabatization_2d_at_mode_7_8_dist0.3_0.6.F82
-rw-r--r-- 1 bsonghao nooijen   19216 Nov 16 19:48 /scratch/bsonghao/nh3_diabatization_2d_at_mode_7_8_dist0.3_0.6.F83
-rw-r--r-- 1 bsonghao nooijen   29712 Nov 16 19:48 /scratch/bsonghao/nh3_diabatization_2d_at_mode_7_8_dist0.3_0.6.F84
-rw-r--r-- 1 bsonghao nooijen  401576 Nov 16 19:48 /scratch/bsonghao/nh3_diabatization_2d_at_mode_7_8_dist0.3_0.6.F85
-rw-r--r-- 1 bsonghao nooijen  903672 Nov 16 19:48 /scratch/bsonghao/nh3_diabatization_2d_at_mode_7_8_dist0.3_0.6.F86
-rw-r--r-- 1 bsonghao nooijen     656 Nov 16 19:48 /scratch/bsonghao/nh3_diabatization_2d_at_mode_7_8_dist0.3_0.6.F87
-rw-r--r-- 1 bsonghao nooijen   39760 Nov 16 19:48 /scratch/bsonghao/nh3_diabatization_2d_at_mode_7_8_dist0.3_0.6.F88
-rw-r--r-- 1 bsonghao nooijen     240 Nov 16 19:48 /scratch/bsonghao/nh3_diabatization_2d_at_mode_7_8_dist0.3_0.6.F89
-rw-r--r-- 1 bsonghao nooijen       0 Nov 16 19:48 /scratch/bsonghao/nh3_diabatization_2d_at_mode_7_8_dist0.3_0.6.F90
-rw-r--r-- 1 bsonghao nooijen   13760 Nov 16 19:48 /scratch/bsonghao/nh3_diabatization_2d_at_mode_7_8_dist0.3_0.6.F91
-rw-r--r-- 1 bsonghao nooijen   22776 Nov 16 19:48 /scratch/bsonghao/nh3_diabatization_2d_at_mode_7_8_dist0.3_0.6.F92
-rw-r--r-- 1 bsonghao nooijen   23168 Nov 16 19:48 /scratch/bsonghao/nh3_diabatization_2d_at_mode_7_8_dist0.3_0.6.F93
-rw-r--r-- 1 bsonghao nooijen   22776 Nov 16 19:48 /scratch/bsonghao/nh3_diabatization_2d_at_mode_7_8_dist0.3_0.6.F94
-rw-r--r-- 1 bsonghao nooijen   13760 Nov 16 19:48 /scratch/bsonghao/nh3_diabatization_2d_at_mode_7_8_dist0.3_0.6.F95
-rw-r--r-- 1 bsonghao nooijen   29440 Nov 16 19:48 /scratch/bsonghao/nh3_diabatization_2d_at_mode_7_8_dist0.3_0.6.F96
-rw-r--r-- 1 bsonghao nooijen    1184 Nov 16 19:48 /scratch/bsonghao/nh3_diabatization_2d_at_mode_7_8_dist0.3_0.6.F97
-rw-r--r-- 1 bsonghao nooijen    9808 Nov 16 19:48 /scratch/bsonghao/nh3_diabatization_2d_at_mode_7_8_dist0.3_0.6.F98
-rw-r--r-- 1 bsonghao nooijen   30264 Nov 16 19:48 /scratch/bsonghao/nh3_diabatization_2d_at_mode_7_8_dist0.3_0.6.F99
ls: No match.
ls: No match.
ls: No match.
Wed 16 Nov 2022 07:48:35 PM EST
0.276u 0.051s 0:17.09 1.8%	0+0k 48+224io 0pf+0w
