----- GAMESS execution script 'rungms' -----
This job is running on host io002
under operating system Linux at Wed 16 Nov 2022 07:25:10 PM EST
Available scratch disk space (Kbyte units) at beginning of the job is
Filesystem       1K-blocks       Used   Available Use% Mounted on
/dev/sdc1      15378471580 3278917120 11318349060  23% /scratch
GAMESS temporary binary files will be written to /scratch/bsonghao
GAMESS supplementary output files will be written to /home/bsonghao/.gamess_ascii_files/267638
Copying input file nh3_diabatization_2d_at_mode_7_8_dist0.0_0.5.inp to your run's scratch directory...
cp nh3_diabatization_2d_at_mode_7_8_dist0.0_0.5.inp /scratch/bsonghao/nh3_diabatization_2d_at_mode_7_8_dist0.0_0.5.F05
unset echo
/home/bjb2chen/gamess/ddikick.x /home/bjb2chen/gamess/gamess.00.x nh3_diabatization_2d_at_mode_7_8_dist0.0_0.5 -ddi 1 1 io002 -scr /scratch/bsonghao

 Distributed Data Interface kickoff program.
 Initiating 1 compute processes on 1 nodes to run the following command:
 /home/bjb2chen/gamess/gamess.00.x nh3_diabatization_2d_at_mode_7_8_dist0.0_0.5 

          ******************************************************
          *         GAMESS VERSION = 02 AUG 2018 (R2)         *
          *             FROM IOWA STATE UNIVERSITY             *
          * M.W.SCHMIDT, K.K.BALDRIDGE, J.A.BOATZ, S.T.ELBERT, *
          *   M.S.GORDON, J.H.JENSEN, S.KOSEKI, N.MATSUNAGA,   *
          *          K.A.NGUYEN, S.J.SU, T.L.WINDUS,           *
          *       TOGETHER WITH M.DUPUIS, J.A.MONTGOMERY       *
          *         J.COMPUT.CHEM.  14, 1347-1363(1993)        *
          **************** 64 BIT LINUX VERSION ****************

  SINCE 1993, STUDENTS AND POSTDOCS WORKING AT IOWA STATE UNIVERSITY
  AND ALSO IN THEIR VARIOUS JOBS AFTER LEAVING ISU HAVE MADE IMPORTANT
  CONTRIBUTIONS TO THE CODE:
     IVANA ADAMOVIC, CHRISTINE AIKENS, YURI ALEXEEV, POOJA ARORA,
     ANDREY ASADCHEV, ROB BELL, PRADIPTA BANDYOPADHYAY, JONATHAN BENTZ,
     BRETT BODE, KURT BRORSEN, CALEB CARLIN, GALINA CHABAN, WEI CHEN,
     CHEOL HO CHOI, PAUL DAY, ALBERT DEFUSCO, NUWAN DESILVA, TIM DUDLEY,
     DMITRI FEDOROV, ALEX FINDLATER, GRAHAM FLETCHER, MARK FREITAG,
     KURT GLAESEMANN, ANASTASIA GUININA,
     DAN KEMP, GRANT MERRILL, NORIYUKI MINEZAWA, JONATHAN MULLIN,
     TAKESHI NAGATA, SEAN NEDD, HEATHER NETZLOFF, BOSILJKA NJEGIC, RYAN OLSON,
     MIKE PAK, BUU PHAM,
     SPENCER PRUITT, LUKE ROSKOP, JIM SHOEMAKER, LYUDMILA SLIPCHENKO,
     TONY SMITH, SAROM SOK LEANG, JIE SONG, TETSUYA TAKETSUGU, SIMON WEBB,
     PENG XU, SOOHAENG YOO, FEDERICO ZAHARIEV

  ADDITIONAL CODE HAS BEEN PROVIDED BY COLLABORATORS IN OTHER GROUPS:
     IOWA STATE UNIVERSITY:
          JOE IVANIC, AARON WEST, LAIMUTIS BYTAUTAS, KLAUS RUEDENBERG
     UNIVERSITY OF TOKYO: KIMIHIKO HIRAO, TAKAHITO NAKAJIMA,
          TAKAO TSUNEDA, MUNEAKI KAMIYA, SUSUMU YANAGISAWA,
          KIYOSHI YAGI, MAHITO CHIBA, SEIKEN TOKURA, NAOAKI KAWAKAMI
     UNIVERSITY OF AARHUS: FRANK JENSEN
     UNIVERSITY OF IOWA: VISVALDAS KAIRYS, HUI LI
     NATIONAL INST. OF STANDARDS AND TECHNOLOGY: WALT STEVENS, DAVID GARMER
     UNIVERSITY OF PISA: BENEDETTA MENNUCCI, JACOPO TOMASI
     UNIVERSITY OF MEMPHIS: HENRY KURTZ, PRAKASHAN KORAMBATH
     UNIVERSITY OF ALBERTA: TOBY ZENG, MARIUSZ KLOBUKOWSKI
     UNIVERSITY OF NEW ENGLAND: MARK SPACKMAN
     MIE UNIVERSITY: HIROAKI UMEDA
     NAT. INST. OF ADVANCED INDUSTRIAL SCIENCE AND TECHNOLOGY: KAZUO KITAURA
     MICHIGAN STATE UNIVERSITY:
          KAROL KOWALSKI, MARTA WLOCH, JEFFREY GOUR, JESSE LUTZ,
          WEI LI, JUN SHEN, J. EMILIANO DEUSTUA, PIOTR PIECUCH
     UNIVERSITY OF MINNESOTA:
          YINAN SHU
     UNIVERSITY OF SILESIA: MONIKA MUSIAL, STANISLAW KUCHARSKI
     FACULTES UNIVERSITAIRES NOTRE-DAME DE LA PAIX:
          OLIVIER QUINET, BENOIT CHAMPAGNE
     UNIVERSITY OF CALIFORNIA - SANTA BARBARA: BERNARD KIRTMAN
     INSTITUTE FOR MOLECULAR SCIENCE:
          KAZUYA ISHIMURA, MICHIO KATOUDA, AND SHIGERU NAGASE
     UNIVERSITY OF NOTRE DAME: ANNA POMOGAEVA, DAN CHIPMAN
     KYUSHU UNIVERSITY:
          HARUYUKI NAKANO,
          FENG LONG GU, JACEK KORCHOWIEC, MARCIN MAKOWSKI, AND YURIKO AOKI,
          HIROTOSHI MORI AND EISAKU MIYOSHI
     PENNSYLVANIA STATE UNIVERSITY:
          TZVETELIN IORDANOV, CHET SWALINA, JONATHAN SKONE,
          SHARON HAMMES-SCHIFFER
     WASEDA UNIVERSITY:
          MASATO KOBAYASHI, TOMOKO AKAMA, TSUGUKI TOUMA,
          TAKESHI YOSHIKAWA, YASUHIRO IKABATA, JUNJI SEINO,
          YUYA NAKAJIMA, HIROMI NAKAI
     NANJING UNIVERSITY: SHUHUA LI
     UNIVERSITY OF NEBRASKA:
          PEIFENG SU, DEJUN SI, NANDUN THELLAMUREGE, YALI WANG, HUI LI
     UNIVERSITY OF ZURICH: ROBERTO PEVERATI, KIM BALDRIDGE
     N. COPERNICUS UNIVERSITY AND JACKSON STATE UNIVERSITY:
          MARIA BARYSZ
     UNIVERSITY OF COPENHAGEN: Jimmy Kromann, CASPER STEINMANN
     TOKYO INSTITUTE OF TECHNOLOGY: HIROYA NAKATA
     NAGOYA UNIVERSITY: YOSHIO NISHIMOTO, STEPHAN IRLE
     MOSCOW STATE UNIVERSITY: VLADIMIR MIRONOV

 EXECUTION OF GAMESS BEGUN Wed Nov 16 19:25:11 2022

            ECHO OF THE FIRST FEW INPUT CARDS -
 INPUT CARD> $system kdiag=3 mwords=100 memddi=1000 parall=.t. $end                         
 INPUT CARD> $contrl runtyp=energy ispher=1 $end                                            
 INPUT CARD> $contrl icut=9 itol=20 inttyp=rysquad qmttol=1.0d-05 nosym=1 $end              
 INPUT CARD> $scf    npunch=2 conv=1.0d-06 dirscf=.t.      $end                             
 INPUT CARD> $contrl scftyp=mcscf  mult=2 maxit=200 icharg=1 mplevl=2 $end                  
 INPUT CARD> $guess  guess=moread norb=29 purify=.t. $end                                   
 INPUT CARD> $basis  gbasis=ccd $end                                                        
 INPUT CARD> $mcscf  cistep=gmcci fullnr=.t. finci=mos                                      
 INPUT CARD>         acurcy=1.d-6 maxit=100 $end                                            
 INPUT CARD> $trans  dirtrf=.t. $end                                                        
 INPUT CARD> $mrmp   mrpt=gmcpt rdvecs=.f. $end                                             
 INPUT CARD> $gmcpt  nmofzc=0 nmodoc=1 nmoact=7 nelact=7 stsym(1)=A                         
 INPUT CARD>         reftyp=ormas nspace=1 mstart(1)=2 mine(1)=7 maxe(1)=7                  
 INPUT CARD>         kstate(1)=1,1,1                                                        
 INPUT CARD>         wstate(1)=1,1,1                                                        
 INPUT CARD>         iwgt=0 thrwgt=-1.0 krot=.f. kszdoe=.f. knospn=.f.                      
 INPUT CARD>         thrde=-1.0 edshft=0.02 $end                                            
 INPUT CARD> $data                                                                          
 INPUT CARD> NH3+ 3 states calculation at NH3 structure.                                    
 INPUT CARD> c1                                                                             
 INPUT CARD>N 7.0 -0.03114459 -0.0 -0.1693809542                                            
 INPUT CARD>H 1.0 -0.21076044500000002 0.9970328028000001 0.19046804310000004               
 INPUT CARD>H 1.0 -0.210760455 -0.9970327978 0.19046803310000002                            
 INPUT CARD>H 1.0 0.85428333 1e-08 0.3884487431                                             
 INPUT CARD>$end                                                                            
 INPUT CARD>--- OPTIMIZED RHF      MO-S --- GENERATED AT Mon Nov 14 16:47:08 2022           
 INPUT CARD>E=      -56.3825050291, E(NUC)=   11.8429239490                                 
 INPUT CARD> $VEC                                                                           
 INPUT CARD> 1  1-1.00134066E+00-2.25158504E-03 3.44925845E-03 0.00000000E+00 0.00000000E+00
 INPUT CARD> 1  2-2.13170927E-03 0.00000000E+00 0.00000000E+00 6.57129898E-04-6.87950443E-05
 INPUT CARD> 1  3-6.87950443E-05 1.37590089E-04 0.00000000E+00 0.00000000E+00 0.00000000E+00
 INPUT CARD> 1  4 3.25502815E-04-4.84772356E-04 3.62525460E-04-6.27912517E-04-3.45956485E-04
 INPUT CARD> 1  5 3.25502815E-04-4.84772356E-04 3.62525460E-04 6.27912517E-04-3.45956485E-04
 INPUT CARD> 1  6 3.25502815E-04-4.84772356E-04-7.25050921E-04 0.00000000E+00-3.45956485E-04
 INPUT CARD> 2  1 1.31286642E-02-4.05911371E-01-2.82090992E-01 0.00000000E+00 0.00000000E+00
 INPUT CARD> 2  2-7.71489043E-02 0.00000000E+00 0.00000000E+00 9.73717494E-03 6.62450916E-04
 INPUT CARD> 2  3 6.62450916E-04-1.32490183E-03 0.00000000E+00 0.00000000E+00 0.00000000E+00
 INPUT CARD> 2  4-1.96090317E-01-1.96656153E-02-1.74855877E-02 3.02859263E-02 8.68214399E-03
 INPUT CARD> 2  5-1.96090317E-01-1.96656153E-02-1.74855877E-02-3.02859263E-02 8.68214399E-03
 INPUT CARD> 2  6-1.96090317E-01-1.96656153E-02 3.49711754E-02 0.00000000E+00 8.68214399E-03
 INPUT CARD> 3  1 0.00000000E+00 0.00000000E+00 0.00000000E+00 4.48608762E-01 0.00000000E+00
 INPUT CARD> 3  2 0.00000000E+00 2.18692520E-01 0.00000000E+00 0.00000000E+00 1.30198027E-02
 INPUT CARD> 3  3-1.30198027E-02 0.00000000E+00 0.00000000E+00 2.71832968E-02 0.00000000E+00
 INPUT CARD> 3  4-1.85332726E-01-7.03958951E-02 8.47929477E-03 1.95242443E-02 8.32835058E-03
 INPUT CARD> 3  5-1.85332726E-01-7.03958951E-02 8.47929477E-03-1.95242443E-02 8.32835058E-03
 INPUT CARD> 3  6 3.70665453E-01 1.40791790E-01-2.53376884E-02 0.00000000E+00-1.66567012E-02
 INPUT CARD> 4  1 0.00000000E+00 0.00000000E+00 0.00000000E+00 0.00000000E+00 4.48608762E-01
 INPUT CARD> 4  2 0.00000000E+00 0.00000000E+00 2.18692520E-01 0.00000000E+00 0.00000000E+00
 INPUT CARD> 4  3 0.00000000E+00 0.00000000E+00-1.50339731E-02 0.00000000E+00 2.71832968E-02
 INPUT CARD> 4  4 3.21005698E-01 1.21929267E-01 1.95242443E-02-1.40653607E-02-1.44251263E-02
  100000000 WORDS OF MEMORY AVAILABLE

     BASIS OPTIONS
     -------------
     GBASIS=CCD          IGAUSS=       0      POLAR=NONE    
     NDFUNC=       0     NFFUNC=       0     DIFFSP=       F
     NPFUNC=       0      DIFFS=       F     BASNAM=        


     RUN TITLE
     ---------
  NH3+ 3 states calculation at NH3 structure.                                    

 THE POINT GROUP OF THE MOLECULE IS C1      
 THE ORDER OF THE PRINCIPAL AXIS IS     0

 ATOM      ATOMIC                      COORDINATES (BOHR)
           CHARGE         X                   Y                   Z
 N           7.0    -0.0588547411       -0.0000000000       -0.3200835910
 H           1.0    -0.3982794901        1.8841187981        0.3599324109
 H           1.0    -0.3982795090       -1.8841187886        0.3599323920
 H           1.0     1.6143614096        0.0000000189        0.7340616847

          INTERNUCLEAR DISTANCES (ANGS.)
          ------------------------------

                1 N          2 H          3 H          4 H     

   1 N       0.0000000    1.0750942 *  1.0750942 *  1.0464973 *
   2 H       1.0750942 *  0.0000000    1.9940656 *  1.4722734 *
   3 H       1.0750942 *  1.9940656 *  0.0000000    1.4722734 *
   4 H       1.0464973 *  1.4722734 *  1.4722734 *  0.0000000  

  * ... LESS THAN  3.000


     ATOMIC BASIS SET
     ----------------
 THE CONTRACTED PRIMITIVE FUNCTIONS HAVE BEEN UNNORMALIZED
 THE CONTRACTED BASIS FUNCTIONS ARE NOW NORMALIZED TO UNITY

  SHELL TYPE  PRIMITIVE        EXPONENT          CONTRACTION COEFFICIENT(S)

 N         

      1   S       1          9046.0000000    0.000699617413
      1   S       2          1357.0000000    0.005386054630
      1   S       3           309.3000000    0.027391021189
      1   S       4            87.7300000    0.103150591982
      1   S       5            28.5600000    0.278570663317
      1   S       6            10.2100000    0.448294849454
      1   S       7             3.8380000    0.278085928395
      1   S       8             0.7466000    0.015431561233

      2   S       9          9046.0000000   -0.000304990096
      2   S      10          1357.0000000   -0.002408026379
      2   S      11           309.3000000   -0.011944448725
      2   S      12            87.7300000   -0.048925992909
      2   S      13            28.5600000   -0.134472724725
      2   S      14            10.2100000   -0.315112577700
      2   S      15             3.8380000   -0.242857832550
      2   S      16             0.7466000    1.094382206854

      3   S      17             0.2248000    1.000000000000

      4   P      18            13.5500000    0.058905676772
      4   P      19             2.9170000    0.320461106714
      4   P      20             0.7973000    0.753042061792

      5   P      21             0.2185000    1.000000000000

      6   D      22             0.8170000    1.000000000000

 H         

      7   S      23            13.0100000    0.033498726390
      7   S      24             1.9620000    0.234800801174
      7   S      25             0.4446000    0.813682957883

      8   S      26             0.1220000    1.000000000000

      9   P      27             0.7270000    1.000000000000

 H         

     10   S      28            13.0100000    0.033498726390
     10   S      29             1.9620000    0.234800801174
     10   S      30             0.4446000    0.813682957883

     11   S      31             0.1220000    1.000000000000

     12   P      32             0.7270000    1.000000000000

 H         

     13   S      33            13.0100000    0.033498726390
     13   S      34             1.9620000    0.234800801174
     13   S      35             0.4446000    0.813682957883

     14   S      36             0.1220000    1.000000000000

     15   P      37             0.7270000    1.000000000000

 TOTAL NUMBER OF BASIS SET SHELLS             =   15
 NUMBER OF CARTESIAN GAUSSIAN BASIS FUNCTIONS =   30
 NOTE: THIS RUN WILL RESTRICT THE MO VARIATION SPACE TO SPHERICAL HARMONICS.
 THE NUMBER OF ORBITALS KEPT IN THE VARIATIONAL SPACE WILL BE PRINTED LATER.
 NUMBER OF ELECTRONS                          =    9
 CHARGE OF MOLECULE                           =    1
 SPIN MULTIPLICITY                            =    2
 NUMBER OF OCCUPIED ORBITALS (ALPHA)          =    5
 NUMBER OF OCCUPIED ORBITALS (BETA )          =    4
 TOTAL NUMBER OF ATOMS                        =    4
 THE NUCLEAR REPULSION ENERGY IS       11.4148964605

     $CONTRL OPTIONS
     ---------------
 SCFTYP=MCSCF        RUNTYP=ENERGY       EXETYP=RUN     
 MPLEVL=       2     CITYP =NONE         CCTYP =NONE         VBTYP =NONE    
 DFTTYP=NONE         TDDFT =NONE    
 MULT  =       2     ICHARG=       1     NZVAR =       0     COORD =UNIQUE  
 PP    =NONE         RELWFN=NONE         LOCAL =NONE         NUMGRD=       F
 ISPHER=       1     NOSYM =       1     MAXIT =     200     UNITS =ANGS    
 PLTORB=       F     MOLPLT=       F     AIMPAC=       F     FRIEND=        
 NPRINT=       7     IREST =       0     GEOM  =INPUT   
 NORMF =       0     NORMP =       0     ITOL  =      20     ICUT  =       9
 INTTYP=RYSQUAD      GRDTYP=BEST         QMTTOL= 1.0E-05

     $SYSTEM OPTIONS
     ---------------
  REPLICATED MEMORY=   100000000 WORDS (ON EVERY NODE).
 DISTRIBUTED MEMDDI=        1000 MILLION WORDS IN AGGREGATE,
 MEMDDI DISTRIBUTED OVER   1 PROCESSORS IS  1000000000 WORDS/PROCESSOR.
 TOTAL MEMORY REQUESTED ON EACH PROCESSOR=  1100000000 WORDS.
 TIMLIM=      525600.00 MINUTES, OR     365.0 DAYS.
 PARALL= T  BALTYP=  DLB     KDIAG=    3  COREFL= F
 MXSEQ2=     300 MXSEQ3=     150  mem10=         0

          ----------------
          PROPERTIES INPUT
          ----------------

     MOMENTS            FIELD           POTENTIAL          DENSITY
 IEMOM =       1   IEFLD =       0   IEPOT =       0   IEDEN =       0
 WHERE =COMASS     WHERE =NUCLEI     WHERE =NUCLEI     WHERE =NUCLEI  
 OUTPUT=BOTH       OUTPUT=BOTH       OUTPUT=BOTH       OUTPUT=BOTH    
 IEMINT=       0   IEFINT=       0                     IEDINT=       0
                                                       MORB  =       0

     -------------------------------
     INTEGRAL TRANSFORMATION OPTIONS
     -------------------------------
     NWORD  =            0
     CUTOFF = 1.0E-09     MPTRAN =       0
     DIRTRF =       T     AOINTS =DUP     

          ----------------------
          MCSCF INPUT PARAMETERS
          ----------------------
 CONVERGER SELECTION: FOCAS = F  SOSCF = F  FULLNR = T  QUD = F  JACOBI = F
 SECULAR EQUATION METHOD CISTEP = GMCCI   
 --- GENERAL INPUT OPTIONS:
 MAXIT =     100  MICIT =       1  ACURCY= 1.000E-06
 DAMP  =   0.000  CANONC=       T  ENGTOL= 1.000E-10
 EKT   =       F  NPUNCH=       2  NWORD =         0
 REGENERATE CI AFTER CONVERGENCE = NONE    
 DIABATIZATION AFTER CONVERGENCE =        F
 --- INPUT FOR FULLNR CONVERGER:
 METHOD=DM2       FORS  =       F  DROPC =       T
 LINSER=       F  FCORE =       F  NORB  =      30

          ----------------------
          INTEGRAL INPUT OPTIONS
          ----------------------
 NOPK  =       1 NORDER=       0 SCHWRZ=       T

 ------------------------------------------
 MULTIREFERENCE PERTURBATION THEORY CONTROL
 ------------------------------------------
 MRPT=GMCPT    READ CONVERGED MCSCF VECTORS= F


     ------------------------------------------
     THE POINT GROUP IS C1 , NAXIS= 1, ORDER= 1
     ------------------------------------------

 -- VARIATIONAL SPACE WILL BE RESTRICTED TO PURE SPHERICAL HARMONICS ONLY --
 AFTER EXCLUDING CONTAMINANT COMBINATIONS FROM THE CARTESIAN GAUSSIAN BASIS
 SET, THE NUMBER OF SPHERICAL HARMONICS KEPT IN THE VARIATION SPACE IS   29

     DIMENSIONS OF THE SYMMETRY SUBSPACES ARE
 A   =   29

 ..... DONE SETTING UP THE RUN .....
 CPU     0: STEP CPU TIME=     0.03 TOTAL CPU TIME=          0.0 (      0.0 MIN)
 TOTAL WALL CLOCK TIME=          0.1 SECONDS, CPU UTILIZATION IS    60.00%

          ********************
          1 ELECTRON INTEGRALS
          ********************
 TIME TO DO   DIPOLE INTEGRALS=      0.00
 ...... END OF ONE-ELECTRON INTEGRALS ......
 CPU     0: STEP CPU TIME=     0.00 TOTAL CPU TIME=          0.0 (      0.0 MIN)
 TOTAL WALL CLOCK TIME=          0.1 SECONDS, CPU UTILIZATION IS    60.00%

          -------------
          GUESS OPTIONS
          -------------
          GUESS =MOREAD            NORB  =      29          NORDER=       0
          MIX   =       F          PRTMO =       F          PUNMO =       F
          TOLZ  = 1.0E-08          TOLE  = 1.0E-05
          SYMDEN=       F          PURIFY=       T

 INITIAL GUESS ORBITALS GENERATED BY MOREAD   ROUTINE.

 STATISTICS FOR GENERATION OF SYMMETRY ORBITAL -Q- MATRIX
 NUMBER OF CARTESIAN ATOMIC ORBITALS=         30
 NUMBER OF SPHERICAL CONTAMINANTS DROPPED=     1
 NUMBER OF LINEARLY DEPENDENT MOS DROPPED=     0
 TOTAL NUMBER OF MOS IN VARIATION SPACE=      29
 ORBITAL PURIFICATION WILL OCCUR

 SYMMETRIES FOR INITIAL GUESS ORBITALS FOLLOW.   BOTH SET(S).
     5 ORBITALS ARE OCCUPIED (    1 CORE ORBITALS).
     1=A        2=A        3=A        4=A        5=A        6=A        7=A   
     8=A        9=A       10=A       11=A       12=A       13=A       14=A   
    15=A       16=A       17=A       18=A       19=A       20=A       21=A   
    22=A       23=A       24=A       25=A       26=A       27=A       28=A   
    29=A   
 ...... END OF INITIAL ORBITAL SELECTION ......
 CPU     0: STEP CPU TIME=     0.01 TOTAL CPU TIME=          0.0 (      0.0 MIN)
 TOTAL WALL CLOCK TIME=          0.1 SECONDS, CPU UTILIZATION IS    80.00%

                    ----------------------
                    AO INTEGRAL TECHNOLOGY
                    ----------------------
     S,P,L SHELL ROTATED AXIS INTEGRALS, REPROGRAMMED BY
        KAZUYA ISHIMURA (IMS) AND JOSE SIERRA (SYNSTAR).
     S,P,D,L SHELL ROTATED AXIS INTEGRALS PROGRAMMED BY
        KAZUYA ISHIMURA (INSTITUTE FOR MOLECULAR SCIENCE).
     S,P,D,F,G SHELL TO TOTAL QUARTET ANGULAR MOMENTUM SUM 5,
        ERIC PROGRAM BY GRAHAM FLETCHER (ELORET AND NASA ADVANCED
        SUPERCOMPUTING DIVISION, AMES RESEARCH CENTER).
     S,P,D,F,G,L SHELL GENERAL RYS QUADRATURE PROGRAMMED BY
        MICHEL DUPUIS (PACIFIC NORTHWEST NATIONAL LABORATORY).

          --------------------
          2 ELECTRON INTEGRALS
          --------------------

 DIRECT SCF METHOD SKIPS INTEGRAL STORAGE ON DISK.
 DIRECT TRANSFORMATION SKIPS AO INTEGRAL STORAGE ON DISK.
  ...... END OF TWO-ELECTRON INTEGRALS .....
 STEP CPU TIME =     0.02 TOTAL CPU TIME =          0.1 (      0.0 MIN)
 TOTAL WALL CLOCK TIME=          0.1 SECONDS, CPU UTILIZATION IS    75.00%
 DDI: Creating Array [0] - 900 x 36 = 32400 words.
 DDI: Creating Array [1] - 21 x 288 = 6048 words.
 DDI: Creating Array [2] - 36 x 36 = 1296 words.
 DDI: Creating Array [3] - 465 x 36 = 16740 words.

          -----------------
          MCSCF CALCULATION
          -----------------

 ----- NUCLEAR ENERGY ----- =        11.4148964605

     -------------------------------------------------
     GMC-PT/GMC-QDPT or general MCSCF input parameters
     -------------------------------------------------
 # of frozen core orbs. =         0 ->         0
 # of doubly occ. orbs. =         1
 # of active      orbs. =         7
 # of virtual     orbs. =        21
 # of active electrons  =         7
 # of states in CI      =         3
 Highest state in CI    =         3
 kstate =  1 1 1
 avecoe =  0.333 0.333 0.333
 State symmetry           = A           
 Assigned symmetry number = 1

 <<<Act. MO sym.: 1111111

 <<<Division of 1-ext.:  0
 <<<Division of 2-ext.:  0

 *** Reference space

 Reference type: ORMAS (= Occupation restricted multiple active space)
 # of orbitals          =  7
 # of minimum electrons =  7
 # of maximum electrons =  7
 State symmetry    =    1 (input)
 2*Sz              =    1 (input)
 Spin multiplicity =    2 (input)
 Dimension of reference space =      1225  (from      3432 walks)

 Dimension of reference space =      1225  (from      1225 walks)

 <<<Ionized spaces for Ref-CI:
      0:         1225 /   -1-0:         1960 /  0-1-0:         2891

 EVALUATING EXCHANGE INTEGRALS FOR DIRECT INTEGRAL TRANSFORMATION
 SCHWARZ INEQUALITY OVERHEAD:       465 INTEGRALS, T=        0.00

     --------------------------------------------
     PARTIAL TWO ELECTRON INTEGRAL TRANSFORMATION
     --------------------------------------------

 NUMBER OF CORE MOLECULAR ORBITALS     =    1
 NUMBER OF OCCUPIED MOLECULAR ORBITALS =    8
 TOTAL NUMBER OF MOLECULAR ORBITALS    =   29
 TOTAL NUMBER OF ATOMIC ORBITALS       =   30
 THRESHOLD FOR KEEPING TRANSFORMED 2E- INTEGRALS = 1.000E-09

 -------------------------------     ------------------------------
 DISTRIBUTED DATA TRANSFORMATION     PROGRAM WRITTEN BY G. FLETCHER
 -------------------------------     ------------------------------

 THE DISTRIBUTED MEMORY REQUIRED FOR THIS STEP IS MEMDDI=         1 MWORDS
 CREATING DISTRIBUTED STORAGE FOR [VIR OCC|VIR OCC] INTEGRALS
 CREATING DISTRIBUTED STORAGE FOR [VIR OCC|OCC OCC] INTEGRALS
 CREATING DISTRIBUTED STORAGE FOR [OCC OCC|OCC OCC] INTEGRALS
 CREATING DISTRIBUTED STORAGE FOR [VIR VIR|OCC OCC] INTEGRALS
 FOR    1 PROCESSORS, THE REPLICATED MEMORY NEEDED IS       73700 WORDS.
 SCHWARZ INEQUALITY OVERHEAD:       465 INTEGRALS, T=        0.00

      DIRECT 4-INDEX TRANSFORMATION 
      SCHWARZ INEQUALITY TEST SKIPPED          0 INTEGRAL BLOCKS
 ----- FROZEN CORE ENERGY =       -47.7122416973
 ... END OF INTEGRAL TRANSFORMATION ...
 CPU     0: STEP CPU TIME=     0.23 TOTAL CPU TIME=          0.3 (      0.0 MIN)
 TOTAL WALL CLOCK TIME=          0.3 SECONDS, CPU UTILIZATION IS    96.67%

     --------------------------------     -----------------------------
     MCHF NEWTON-RAPHSON OPTIMIZATION     CODE WRITTEN BY MICHEL DUPUIS
     --------------------------------     -----------------------------
     PARALLEL VERSION WRITTEN BY G. FLETCHER (ELORET)
     NASA ADVANCED SUPERCOMPUTING DIVISION, AMES RESEARCH CENTER

 NUMBER OF INDEPENDENT ORBITAL ROTATION PARAMETERS =   106
 ..... DONE SOLVING NEWTON-RAPHSON EQUATIONS .....
 CPU     0: STEP CPU TIME=     0.64 TOTAL CPU TIME=          0.9 (      0.0 MIN)
 TOTAL WALL CLOCK TIME=          0.9 SECONDS, CPU UTILIZATION IS    97.89%
 ..... DONE WITH NTN-RPH ORBITAL ROTATIONS ..... 
 CPU     0: STEP CPU TIME=     0.00 TOTAL CPU TIME=          0.9 (      0.0 MIN)
 TOTAL WALL CLOCK TIME=          0.9 SECONDS, CPU UTILIZATION IS    97.89%
 MAXIMUM MEMORY USED BY NTN-RPH CODE WAS     57645 WORDS.

 ITER     TOTAL ENERGY      DEL(E)  LAGRANGIAN ASYMMETRY   SQCDF  MICIT   DAMP
   1      -55.648820741 -0.648820741  0.122968   14    4 1.356E-01  1   0.0000
   2      -55.692882167 -0.044061426  0.021610   12    5 4.565E-01  1   0.0000
   3      -55.726931974 -0.034049807  0.012809   11    6 2.154E-01  1   0.0236
   4      -55.741444809 -0.014512835  0.004404   11    6 3.849E-02  1   0.0047
   5      -55.743218647 -0.001773839  0.000777   13    5 9.047E-04  1   0.0000
   6      -55.743263730 -0.000045082  0.000300   13    5 5.800E-05  1   0.0000
   7      -55.743267652 -0.000003923  0.000125   13    5 8.792E-06  1   0.0000
   8      -55.743268309 -0.000000657  0.000057   22    5 1.683E-06  1   0.0000
   9      -55.743268440 -0.000000131  0.000027   22    5 3.739E-07  1   0.0000
  10      -55.743268470 -0.000000030  0.000014   22    5 9.355E-08  1   0.0000
  11      -55.743268477 -0.000000007  0.000007   22    5 2.554E-08  1   0.0000
  12      -55.743268479 -0.000000002  0.000004   22    5 7.339E-09  1   0.0000
  13      -55.743268480 -0.000000001  0.000002   22    5 2.230E-09  1   0.0000
  14      -55.743268480 -0.000000000  0.000001   22    5 6.745E-10  1   0.0000
  15      -55.743268480 -0.000000000  0.000001   22    5 2.077E-10  1   0.0000

          --------------------
          LAGRANGIAN CONVERGED
          --------------------

 FINAL MCSCF ENERGY IS      -55.7432684799 AFTER  15 ITERATIONS

 -MCCI- BASED ON OPTIMIZED ORBITALS
 ----------------------------------

 PLEASE NOTE: IF THE ACTIVE ORBITALS ARE CANONICALIZED BELOW,
 THE FOLLOWING CI EXPANSION COEFFICIENTS AND THE DENSITY DO NOT
 CORRESPOND TO THE PRINTED ORBITALS.  THE PRINTED EXPANSIONS MATCH
 THE ORBITALS USED DURING THE LAST ITERATION.  IF YOU WISH TO SEE
 CI EXPANSIONS BASED ON THE CANONICAL (OR NATURAL) ORBITALS, YOU
 MUST RUN A CI CALCULATION WITH THAT ORBITAL CHOICE READ IN $VEC.

 Averaged energy =     -55.743268480

 State #    1  Energy =     -55.883763150  S =  0.500

      Det      Coef    Occupancy (Ignoring core)
      ---      ----    --------- --------- -----
        1    0.923775  11110001110000
        2    0.055696  11101001110000
        5   -0.065584  01111001110000
        8   -0.131763  10110101110000
       17    0.130024  11010011110000
       71   -0.222297  11110001011000
      386    0.090801  11110001010010
      393    0.074646  10110101010010
      701   -0.109321  11110001100001

 State #    2  Energy =     -55.727608259  S =  0.500

      Det      Coef    Occupancy (Ignoring core)
      ---      ----    --------- --------- -----
        1    0.216166  11110001110000
       71    0.937282  11110001011000
       74   -0.053471  10111001011000
       75   -0.061058  01111001011000
       78   -0.080261  10110101011000
       87    0.099551  11010011011000
      316    0.055905  11110000011100
      386    0.058517  11110001010010
      806    0.094564  11110001001001
      822   -0.052439  11010011001001

 State #    3  Energy =     -55.618434031  S =  0.500

      Det      Coef    Occupancy (Ignoring core)
      ---      ----    --------- --------- -----
       36    0.966458  11110001101000
       43   -0.082949  10110101101000
       52    0.067183  11010011101000
      281    0.072492  11110000101100
      456    0.104713  11110001001010
      463    0.078614  10110101001010

 DENSITY MATRIX OVER ACTIVE MO-S

             1           2           3           4           5

    1    1.9769172
    2    0.0194320   1.6309016
    3   -0.0000000   0.0000000   1.6348916
    4    0.0009444   0.0044831  -0.0000000   1.6534227
    5    0.1018488  -0.0358597  -0.0000000   0.0415666   0.0284159
    6    0.0033858  -0.1467992  -0.0000000   0.0456468   0.0076915
    7   -0.0000000  -0.0000000  -0.1499348   0.0000000  -0.0000000

             6           7

    6    0.0423382
    7   -0.0000000   0.0331128

 FORMING THE "STANDARD FOCK OPERATOR" IN DIRECT AO INTEGRAL MODE...
 ONLY THE    1 CORE AND   21 VIRTUAL ORBITALS WILL BE CANONICALIZED

          ----------------------
          MCSCF NATURAL ORBITALS
          ----------------------

                      1          2          3          4          5
                  -15.9835     1.9831     1.6558     1.6488     1.6443
                     A          A          A          A          A   
    1  N  1  S    1.001195   0.009346  -0.009947   0.000000  -0.002984
    2  N  1  S   -0.001916   0.437477  -0.174316  -0.000000  -0.079081
    3  N  1  S   -0.006331   0.305171  -0.275666  -0.000000  -0.118150
    4  N  1  X    0.000039   0.042310  -0.090296   0.000000   0.519094
    5  N  1  Y   -0.000000  -0.000000  -0.000000   0.481628  -0.000000
    6  N  1  Z    0.001114   0.093351   0.590846   0.000000   0.035509
    7  N  1  X    0.000056  -0.002470  -0.077884   0.000000   0.263341
    8  N  1  Y   -0.000000  -0.000000  -0.000000   0.182613  -0.000000
    9  N  1  Z   -0.000462   0.009766   0.387407   0.000000  -0.009597
   10  N  1 XX   -0.000180  -0.001688  -0.012989   0.000000   0.014790
   11  N  1 YY    0.000353   0.000950  -0.010844  -0.000000  -0.016802
   12  N  1 ZZ   -0.000174   0.000739   0.023833   0.000000   0.002013
   13  N  1 XY   -0.000000   0.000000   0.000000  -0.002299  -0.000000
   14  N  1 XZ    0.000166   0.001878   0.000996   0.000000   0.025209
   15  N  1 YZ   -0.000000   0.000000  -0.000000   0.020767  -0.000000
   16  H  2  S   -0.001828   0.172692   0.108742   0.334574  -0.142778
   17  H  2  S    0.000517  -0.000552   0.029987   0.046212  -0.037892
   18  H  2  X   -0.000240   0.008654   0.002344   0.012894   0.017520
   19  H  2  Y    0.000928  -0.032344  -0.014763  -0.033799   0.014370
   20  H  2  Z    0.000383  -0.005545   0.019947  -0.013045   0.006897
   21  H  3  S   -0.001828   0.172692   0.108742  -0.334574  -0.142778
   22  H  3  S    0.000517  -0.000552   0.029987  -0.046212  -0.037892
   23  H  3  X   -0.000240   0.008654   0.002344  -0.012894   0.017520
   24  H  3  Y   -0.000928   0.032344   0.014763  -0.033799  -0.014370
   25  H  3  Z    0.000383  -0.005545   0.019947   0.013045   0.006897
   26  H  4  S   -0.001949   0.213821   0.102144   0.000000   0.379905
   27  H  4  S    0.000294   0.008485   0.021785   0.000000   0.084006
   28  H  4  X    0.000903  -0.034302  -0.020340  -0.000000  -0.026085
   29  H  4  Y   -0.000000  -0.000000  -0.000000   0.023770  -0.000000
   30  H  4  Z    0.000520  -0.016200   0.019247  -0.000000  -0.021892

                      6          7          8
                    0.0287     0.0200     0.0192
                     A          A          A   
    1  N  1  S   -0.114982  -0.205856  -0.000000
    2  N  1  S   -0.369462  -0.682352  -0.000000
    3  N  1  S    0.019359  -0.180162  -0.000000
    4  N  1  X    0.726422  -0.380101  -0.000000
    5  N  1  Y   -0.000000  -0.000000   0.947172
    6  N  1  Z   -0.135170  -0.663581  -0.000000
    7  N  1  X   -0.020300  -0.071172  -0.000000
    8  N  1  Y   -0.000000  -0.000000   0.080057
    9  N  1  Z    0.046098   0.093316   0.000000
   10  N  1 XX   -0.050627  -0.018920  -0.000000
   11  N  1 YY    0.053437   0.014062   0.000000
   12  N  1 ZZ   -0.002810   0.004858   0.000000
   13  N  1 XY    0.000000   0.000000  -0.045598
   14  N  1 XZ   -0.009875   0.046597   0.000000
   15  N  1 YZ    0.000000   0.000000  -0.055780
   16  H  2  S    0.498076   0.329935  -0.600401
   17  H  2  S    0.098003   0.029276  -0.129924
   18  H  2  X   -0.006486   0.022019  -0.023514
   19  H  2  Y   -0.051870  -0.045817   0.054932
   20  H  2  Z   -0.003751   0.018782  -0.015463
   21  H  3  S    0.498076   0.329935   0.600401
   22  H  3  S    0.098003   0.029276   0.129924
   23  H  3  X   -0.006486   0.022019   0.023514
   24  H  3  Y    0.051870   0.045817   0.054932
   25  H  3  Z   -0.003751   0.018782   0.015463
   26  H  4  S   -0.490085   0.710410   0.000000
   27  H  4  S   -0.138770   0.113047   0.000000
   28  H  4  X    0.019957  -0.077692  -0.000000
   29  H  4  Y    0.000000   0.000000  -0.045203
   30  H  4  Z    0.019199   0.003756   0.000000

          ------------------------
          MCSCF OPTIMIZED ORBITALS
          ------------------------

                      1          2          3          4          5
                  -15.9835     0.0000     0.0000     0.0000     0.0000
                     A          A          A          A          A   
    1  N  1  S    1.001195  -0.002731   0.006479   0.000000  -0.016886
    2  N  1  S   -0.001916   0.401153  -0.017979   0.000000  -0.197406
    3  N  1  S   -0.006331   0.304196  -0.086807  -0.000000  -0.281945
    4  N  1  X    0.000039   0.014439   0.450891  -0.000000  -0.031724
    5  N  1  Y   -0.000000   0.000000   0.000000   0.392047  -0.000000
    6  N  1  Z    0.001114   0.052321   0.004184  -0.000000   0.578619
    7  N  1  X    0.000056  -0.018858   0.267471  -0.000000  -0.060486
    8  N  1  Y   -0.000000  -0.000000  -0.000000   0.174434  -0.000000
    9  N  1  Z   -0.000462   0.012710  -0.038765  -0.000000   0.388415
   10  N  1 XX   -0.000180  -0.004313   0.019976   0.000000  -0.013958
   11  N  1 YY    0.000353   0.003687  -0.020696  -0.000000  -0.009912
   12  N  1 ZZ   -0.000174   0.000626   0.000721  -0.000000   0.023870
   13  N  1 XY   -0.000000   0.000000  -0.000000   0.001924   0.000000
   14  N  1 XZ    0.000166   0.002614   0.026508  -0.000000   0.003089
   15  N  1 YZ   -0.000000  -0.000000  -0.000000   0.025832  -0.000000
   16  H  2  S   -0.001828   0.204960  -0.182904   0.388621   0.121986
   17  H  2  S    0.000517   0.004615  -0.048469   0.058020   0.031048
   18  H  2  X   -0.000240   0.008647   0.018523   0.015012   0.003739
   19  H  2  Y    0.000928  -0.036161   0.017925  -0.038730  -0.016461
   20  H  2  Z    0.000383  -0.005212   0.005767  -0.011560   0.020438
   21  H  3  S   -0.001828   0.204960  -0.182904  -0.388621   0.121986
   22  H  3  S    0.000517   0.004615  -0.048469  -0.058020   0.031048
   23  H  3  X   -0.000240   0.008647   0.018523  -0.015012   0.003739
   24  H  3  Y   -0.000928   0.036161  -0.017925  -0.038730   0.016461
   25  H  3  Z    0.000383  -0.005212   0.005767   0.011560   0.020438
   26  H  4  S   -0.001949   0.216812   0.434856  -0.000000   0.123184
   27  H  4  S    0.000294   0.006503   0.096562  -0.000000   0.024389
   28  H  4  X    0.000903  -0.036026  -0.029004   0.000000  -0.022807
   29  H  4  Y   -0.000000  -0.000000  -0.000000   0.027846  -0.000000
   30  H  4  Z    0.000520  -0.014618  -0.025601   0.000000   0.018191

                      6          7          8          9         10
                    0.0000     0.0000     0.0000     0.1548     0.2058
                     A          A          A          A          A   
    1  N  1  S    0.233392  -0.031406  -0.000000  -0.148321  -0.000000
    2  N  1  S    0.788098  -0.093901  -0.000000  -0.226870  -0.000000
    3  N  1  S    0.171600   0.083085  -0.000000   1.462594   0.000000
    4  N  1  X    0.077481   0.860841   0.000000  -0.045764   0.000000
    5  N  1  Y   -0.000000   0.000000   0.987623   0.000000   0.157233
    6  N  1  Z    0.685733   0.099497   0.000000  -0.226950  -0.000000
    7  N  1  X    0.065084   0.033274  -0.000000   0.170490   0.000000
    8  N  1  Y    0.000000   0.000000   0.096588   0.000000  -0.857817
    9  N  1  Z   -0.092431  -0.005522  -0.000000   0.504630   0.000000
   10  N  1 XX    0.035166  -0.038239   0.000000  -0.029888   0.000000
   11  N  1 YY   -0.032292   0.043256  -0.000000   0.076009  -0.000000
   12  N  1 ZZ   -0.002873  -0.005016   0.000000  -0.046121   0.000000
   13  N  1 XY    0.000000   0.000000  -0.045615   0.000000   0.030827
   14  N  1 XZ   -0.040223  -0.023912   0.000000   0.057808   0.000000
   15  N  1 YZ    0.000000   0.000000  -0.053622  -0.000000  -0.107246
   16  H  2  S   -0.472251   0.324971  -0.566917   0.337776  -0.430486
   17  H  2  S   -0.061086   0.075704  -0.125098  -0.908855   1.587807
   18  H  2  X   -0.018033  -0.012538  -0.022222  -0.010502   0.020191
   19  H  2  Y    0.059019  -0.029617   0.051573   0.093819  -0.086241
   20  H  2  Z   -0.016020  -0.010403  -0.016603   0.014586  -0.075991
   21  H  3  S   -0.472251   0.324971   0.566917   0.337776   0.430486
   22  H  3  S   -0.061086   0.075704   0.125098  -0.908855  -1.587807
   23  H  3  X   -0.018033  -0.012538   0.022222  -0.010502  -0.020191
   24  H  3  Y   -0.059019   0.029617   0.051573  -0.093819  -0.086241
   25  H  3  Z   -0.016020  -0.010403   0.016603   0.014586   0.075991
   26  H  4  S   -0.478222  -0.682180   0.000000   0.169960   0.000000
   27  H  4  S   -0.055780  -0.162996   0.000000  -0.686671  -0.000001
   28  H  4  X    0.063326   0.045119  -0.000000   0.088534   0.000000
   29  H  4  Y    0.000000   0.000000  -0.042814   0.000000   0.012172
   30  H  4  Z   -0.010252   0.013774  -0.000000   0.065081   0.000000

                     11         12         13         14         15
                    0.2153     0.5366     0.6323     0.6530     0.7563
                     A          A          A          A          A   
    1  N  1  S    0.036548   0.069272   0.107188  -0.000000  -0.000000
    2  N  1  S    0.074677   0.091822   0.376613  -0.000000  -0.000000
    3  N  1  S   -0.215045  -0.417034   0.135053  -0.000000   0.000000
    4  N  1  X   -0.005012  -0.625516  -0.209752   0.000000   0.000000
    5  N  1  Y    0.000000   0.000000  -0.000000  -0.468478  -0.092641
    6  N  1  Z    0.060198   0.373617  -0.600991   0.000000   0.000000
    7  N  1  X   -0.427549   1.343073   0.925663  -0.000000  -0.000000
    8  N  1  Y   -0.000000  -0.000000   0.000000   1.937475   0.555000
    9  N  1  Z   -0.184201  -0.431425   1.084954  -0.000000  -0.000000
   10  N  1 XX   -0.076726   0.026895  -0.002327   0.000000   0.000000
   11  N  1 YY    0.088038  -0.011690  -0.055447   0.000000   0.000000
   12  N  1 ZZ   -0.011311  -0.015205   0.057774  -0.000000  -0.000000
   13  N  1 XY    0.000000  -0.000000  -0.000000   0.083444  -0.175834
   14  N  1 XZ   -0.082905   0.034131  -0.046267   0.000000   0.000000
   15  N  1 YZ   -0.000000  -0.000000  -0.000000  -0.051523  -0.099568
   16  H  2  S    0.336031   0.325777  -0.335220  -0.703545  -0.073705
   17  H  2  S   -1.023367   0.489964   0.392471  -0.634886  -0.181421
   18  H  2  X    0.010819   0.027857  -0.001042   0.111143  -0.355335
   19  H  2  Y    0.025926  -0.040950  -0.036925   0.199749   0.117617
   20  H  2  Z    0.004370  -0.067430   0.041477  -0.067228  -0.216169
   21  H  3  S    0.336031   0.325777  -0.335220   0.703545   0.073705
   22  H  3  S   -1.023367   0.489964   0.392471   0.634886   0.181421
   23  H  3  X    0.010819   0.027857  -0.001042  -0.111143   0.355335
   24  H  3  Y   -0.025926   0.040950   0.036925   0.199749   0.117617
   25  H  3  Z    0.004370  -0.067430   0.041477   0.067228   0.216169
   26  H  4  S   -0.616799  -0.165238  -0.824433   0.000000   0.000000
   27  H  4  S    2.167537  -0.843194  -0.446565  -0.000000  -0.000000
   28  H  4  X   -0.095210   0.099220   0.054073   0.000000   0.000000
   29  H  4  Y   -0.000000   0.000000  -0.000000   0.061765  -0.517012
   30  H  4  Z   -0.068890   0.068762   0.049453  -0.000000  -0.000000

                     16         17         18         19         20
                    0.9761     1.0095     1.2408     1.4260     1.4562
                     A          A          A          A          A   
    1  N  1  S   -0.578662  -0.234038  -0.000000  -0.483629  -0.158861
    2  N  1  S   -1.228874  -0.494223  -0.000000  -1.012991  -0.320749
    3  N  1  S    2.461128   1.183188   0.000000   1.796561   0.760655
    4  N  1  X   -0.079741  -0.030353   0.000000  -0.027985   0.159022
    5  N  1  Y   -0.000000   0.000000  -0.281398   0.000000  -0.000000
    6  N  1  Z    0.170686   0.072483   0.000000  -0.042489   0.019193
    7  N  1  X    0.423878   0.347870   0.000000  -0.112709   0.608467
    8  N  1  Y    0.000000  -0.000000   1.063712  -0.000000  -0.000000
    9  N  1  Z    0.024369   0.424619   0.000000   0.779887   0.405957
   10  N  1 XX   -0.115082   0.197380   0.000000   0.121463  -0.093683
   11  N  1 YY   -0.088684  -0.056442   0.000000   0.109301   0.025769
   12  N  1 ZZ    0.203765  -0.140937  -0.000000  -0.230764   0.067914
   13  N  1 XY    0.000000   0.000000  -0.123758  -0.000000   0.000000
   14  N  1 XZ   -0.065398  -0.204582   0.000000  -0.000733  -0.122377
   15  N  1 YZ   -0.000000   0.000000   0.059665   0.000000   0.000000
   16  H  2  S   -0.317849  -0.140025  -0.502960  -0.483970  -0.200688
   17  H  2  S   -0.308492  -0.132116  -0.209016  -0.137325   0.080137
   18  H  2  X    0.002703  -0.343064  -0.400555   0.452862  -0.408788
   19  H  2  Y    0.010412   0.044762  -0.327682   0.091178  -0.086263
   20  H  2  Z    0.322719   0.041991   0.375316  -0.390097  -0.495853
   21  H  3  S   -0.317849  -0.140025   0.502960  -0.483970  -0.200688
   22  H  3  S   -0.308492  -0.132116   0.209016  -0.137325   0.080137
   23  H  3  X    0.002703  -0.343064   0.400555   0.452862  -0.408788
   24  H  3  Y   -0.010412  -0.044762  -0.327682  -0.091178   0.086263
   25  H  3  Z    0.322719   0.041991  -0.375316  -0.390097  -0.495853
   26  H  4  S   -0.497125  -0.276263  -0.000000  -0.484070  -0.306762
   27  H  4  S   -0.369119  -0.238998  -0.000000  -0.172853  -0.341982
   28  H  4  X   -0.085915   0.465838   0.000000   0.103229   0.087373
   29  H  4  Y    0.000000   0.000000   0.189379   0.000000   0.000000
   30  H  4  Z    0.284282  -0.470329   0.000000  -0.214196   0.606554

                     21         22         23         24         25
                    1.6516     1.8083     1.9093     1.9266     2.1718
                     A          A          A          A          A   
    1  N  1  S   -0.000000  -0.058147   0.000000   0.211758  -0.107617
    2  N  1  S   -0.000000  -0.051944   0.000000   0.530610  -0.207800
    3  N  1  S    0.000000   1.036610   0.000000   0.630588   0.444582
    4  N  1  X   -0.000000  -0.229313   0.000000   0.315903  -0.085090
    5  N  1  Y    0.096575  -0.000000   0.597403  -0.000000  -0.000000
    6  N  1  Z   -0.000000   0.063783   0.000000   0.303080  -0.010588
    7  N  1  X    0.000000   0.101243  -0.000000  -0.304778   0.008510
    8  N  1  Y    0.969309  -0.000000   0.144611   0.000000  -0.000000
    9  N  1  Z    0.000000   0.405448   0.000000   0.218055   0.497482
   10  N  1 XX    0.000000   0.205947  -0.000000  -0.129218  -0.807562
   11  N  1 YY   -0.000000  -0.182486  -0.000000  -0.106529  -0.025555
   12  N  1 ZZ   -0.000000  -0.023462   0.000000   0.235747   0.833116
   13  N  1 XY    0.060866  -0.000000   0.236367  -0.000000   0.000000
   14  N  1 XZ    0.000000   0.007595  -0.000000  -0.271097   0.435871
   15  N  1 YZ   -0.100595   0.000000  -0.199433   0.000000   0.000000
   16  H  2  S   -0.321060  -0.167272  -0.032411  -0.137062  -0.163863
   17  H  2  S   -0.237886  -0.431057  -0.358809  -0.116756  -0.070873
   18  H  2  X    0.244199  -0.189302  -0.398512   0.293324  -0.138008
   19  H  2  Y    0.052417   0.762046   0.627824   0.486697   0.117309
   20  H  2  Z    0.564984  -0.120602   0.363575   0.033272  -0.245868
   21  H  3  S    0.321060  -0.167272   0.032411  -0.137062  -0.163863
   22  H  3  S    0.237886  -0.431057   0.358809  -0.116756  -0.070873
   23  H  3  X   -0.244199  -0.189302   0.398512   0.293324  -0.138008
   24  H  3  Y    0.052417  -0.762046   0.627824  -0.486697  -0.117309
   25  H  3  Z   -0.564984  -0.120602  -0.363575   0.033272  -0.245868
   26  H  4  S   -0.000000  -0.354656  -0.000000  -0.016276  -0.166543
   27  H  4  S    0.000000   0.343191  -0.000000  -0.291276   0.052317
   28  H  4  X   -0.000000  -0.509791   0.000000   0.869745   0.235093
   29  H  4  Y   -0.852946   0.000000   0.333898  -0.000000  -0.000000
   30  H  4  Z   -0.000000  -0.014392   0.000000   0.368428  -0.686701

                     26         27         28         29
                    2.2917     2.5857     2.6391     3.0798
                     A          A          A          A   
    1  N  1  S    0.000000  -0.126499  -0.000000  -0.027146
    2  N  1  S    0.000000  -0.089742  -0.000000   0.019951
    3  N  1  S   -0.000000   2.461901   0.000000   0.792409
    4  N  1  X   -0.000000   0.290770   0.000000  -0.443018
    5  N  1  Y   -0.123462  -0.000000   0.505286  -0.000000
    6  N  1  Z   -0.000000   0.340918   0.000000   0.037303
    7  N  1  X   -0.000000   0.847164   0.000000  -0.659345
    8  N  1  Y    0.106564  -0.000000   1.450225  -0.000000
    9  N  1  Z   -0.000000   0.715873   0.000000  -0.009187
   10  N  1 XX    0.000000   0.107125   0.000000  -1.027408
   11  N  1 YY   -0.000000   0.468070   0.000000   1.519897
   12  N  1 ZZ   -0.000000  -0.575195  -0.000000  -0.492489
   13  N  1 XY    1.096264   0.000000  -0.380063   0.000000
   14  N  1 XZ   -0.000000   1.009933   0.000000  -0.624029
   15  N  1 YZ    0.372502  -0.000000   1.258708  -0.000000
   16  H  2  S    0.016996  -0.639321  -1.007345  -0.893156
   17  H  2  S    0.069843  -0.093278  -0.430469  -0.259101
   18  H  2  X   -0.359754  -0.282542  -0.072069  -0.171906
   19  H  2  Y   -0.223312   0.321583   0.782253   0.749049
   20  H  2  Z   -0.201865   0.279393   0.084356   0.423624
   21  H  3  S   -0.016996  -0.639321   1.007345  -0.893156
   22  H  3  S   -0.069843  -0.093279   0.430469  -0.259101
   23  H  3  X    0.359754  -0.282542   0.072069  -0.171906
   24  H  3  Y   -0.223312  -0.321583   0.782253  -0.749049
   25  H  3  Z    0.201865   0.279393  -0.084356   0.423624
   26  H  4  S    0.000000  -1.394392  -0.000000   0.930935
   27  H  4  S   -0.000000  -0.555578  -0.000000   0.281925
   28  H  4  X   -0.000000   0.867842   0.000000  -0.725853
   29  H  4  Y   -0.488894   0.000000  -0.229879  -0.000000
   30  H  4  Z    0.000000   0.552179   0.000000  -0.460846
 .....DONE WITH MCSCF ITERATIONS.....
 CPU     0: STEP CPU TIME=     8.79 TOTAL CPU TIME=          9.7 (      0.2 MIN)
 TOTAL WALL CLOCK TIME=          9.7 SECONDS, CPU UTILIZATION IS    99.90%

     ----------------------------------------------------------------
     PROPERTY VALUES FOR THE MCSCF SELF-CONSISTENT FIELD WAVEFUNCTION
     ----------------------------------------------------------------

          -----------------
          ENERGY COMPONENTS
          -----------------

         WAVEFUNCTION NORMALIZATION =       1.0000000000

                ONE ELECTRON ENERGY =     -94.3284809344
                TWO ELECTRON ENERGY =      27.1703159941
           NUCLEAR REPULSION ENERGY =      11.4148964605
                                      ------------------
                       TOTAL ENERGY =     -55.7432684799

 ELECTRON-ELECTRON POTENTIAL ENERGY =      27.1703159941
  NUCLEUS-ELECTRON POTENTIAL ENERGY =    -150.1292897879
   NUCLEUS-NUCLEUS POTENTIAL ENERGY =      11.4148964605
                                      ------------------
             TOTAL POTENTIAL ENERGY =    -111.5440773333
               TOTAL KINETIC ENERGY =      55.8008088534
                 VIRIAL RATIO (V/T) =       1.9989688255

          ---------------------------------------
          MULLIKEN AND LOWDIN POPULATION ANALYSES
          ---------------------------------------

     ATOMIC MULLIKEN POPULATION IN EACH MOLECULAR ORBITAL

                      1          2          3          4          5

                  2.000000   1.983140   1.655801   1.648805   1.644288

    1             2.000833   1.329871   1.542898   0.907184   1.091105
    2            -0.000252   0.185824   0.036373   0.365300   0.071914
    3            -0.000252   0.185824   0.036373   0.365300   0.071914
    4            -0.000330   0.281620   0.040157   0.011022   0.409353

                      6          7          8

                  0.028725   0.020042   0.019199

    1             0.013175   0.010780   0.010465
    2             0.005485   0.001464   0.004341
    3             0.005485   0.001464   0.004341
    4             0.004579   0.006334   0.000051
 WARNING! MCSCF POPULATIONS SHOWN ABOVE ARE FOR THE NATURAL ORBITALS.
 IGNORE THE ABOVE DATA FOR MCSCF FUNCTIONS WHICH ARE NOT OF -FORS- TYPE.
 THE FOLLOWING POPULATIONS ARE CORRECT FOR ANY MCSCF WAVEFUNCTION.

               ----- POPULATIONS IN EACH AO -----
                             MULLIKEN      LOWDIN
              1  N  1  S      2.00249     1.89941
              2  N  1  S      0.82436     0.57679
              3  N  1  S      0.66090     0.40199
              4  N  1  X      0.72308     0.66216
              5  N  1  Y      0.65202     0.56909
              6  N  1  Z      0.87814     0.82284
              7  N  1  X      0.36392     0.43541
              8  N  1  Y      0.26016     0.38401
              9  N  1  Z      0.52319     0.56111
             10  N  1 XX      0.00060     0.15451
             11  N  1 YY      0.00578     0.19037
             12  N  1 ZZ      0.00016     0.14303
             13  N  1 XY      0.00620     0.00136
             14  N  1 XZ      0.00531     0.01196
             15  N  1 YZ      0.00000     0.01039
             16  H  2  S      0.57716     0.44994
             17  H  2  S      0.03709     0.14660
             18  H  2  X      0.00984     0.02212
             19  H  2  Y      0.03407     0.05669
             20  H  2  Z      0.01229     0.03171
             21  H  3  S      0.57716     0.44994
             22  H  3  S      0.03709     0.14660
             23  H  3  X      0.00984     0.02212
             24  H  3  Y      0.03407     0.05669
             25  H  3  Z      0.01229     0.03171
             26  H  4  S      0.64161     0.49705
             27  H  4  S      0.05048     0.14401
             28  H  4  X      0.03043     0.05405
             29  H  4  Y      0.01107     0.02169
             30  H  4  Z      0.01919     0.04463

          ----- MULLIKEN ATOMIC OVERLAP POPULATIONS -----
          (OFF-DIAGONAL ELEMENTS NEED TO BE MULTIPLIED BY 2)

             1           2           3           4

    1    6.0156564
    2    0.2969175   0.3863942
    3    0.2969175  -0.0060790   0.3863942
    4    0.2968191  -0.0067813  -0.0067813   0.4695307

          TOTAL MULLIKEN AND LOWDIN ATOMIC POPULATIONS
       ATOM         MULL.POP.    CHARGE          LOW.POP.     CHARGE
    1 N             6.906310    0.093690         6.824431    0.175569
    2 H             0.670451    0.329549         0.707062    0.292938
    3 H             0.670451    0.329549         0.707062    0.292938
    4 H             0.752787    0.247213         0.761444    0.238556

          MULLIKEN SPHERICAL HARMONIC POPULATIONS
       ATOM           S       P       D      F      G      H      I    TOTAL
    1 N             3.49    3.40    0.02   0.00   0.00   0.00   0.00    6.91
    2 H             0.61    0.06    0.00   0.00   0.00   0.00   0.00    0.67
    3 H             0.61    0.06    0.00   0.00   0.00   0.00   0.00    0.67
    4 H             0.69    0.06    0.00   0.00   0.00   0.00   0.00    0.75

          ---------------------
          ELECTROSTATIC MOMENTS
          ---------------------

 POINT   1           X           Y           Z (BOHR)    CHARGE
                 0.000003    0.000000   -0.177185        1.00 (A.U.)
         DX          DY          DZ         /D/  (DEBYE)
     0.554910    0.000000    2.133467    2.204452
 ...... END OF PROPERTY EVALUATION ......
 CPU     0: STEP CPU TIME=     0.00 TOTAL CPU TIME=          9.7 (      0.2 MIN)
 TOTAL WALL CLOCK TIME=          9.7 SECONDS, CPU UTILIZATION IS    99.90%

     -------------------------------------------------
     GMC-PT/GMC-QDPT or general MCSCF input parameters
     -------------------------------------------------
 # of frozen core orbs. =         0 ->         0
 # of doubly occ. orbs. =         1
 # of active      orbs. =         7
 # of virtual     orbs. =        21
 # of active electrons  =         7
 # of states in CI      =         3
 Highest state in CI    =         3
 kstate =  1 1 1
 avecoe =  0.333 0.333 0.333
 State symmetry           = A           
 Assigned symmetry number = 1

 <<<Act. MO sym.: 1111111

 <<<Division of 1-ext.:  0
 <<<Division of 2-ext.:  0

     ------------------------
     Orbital canonicalization
     ------------------------

 MOs are canonicalized for core, virtual, and invariant-active orbital spaces.
 This is a part of the GMC-QDPT calculation.
 SCHWARZ INEQUALITY OVERHEAD:       465 INTEGRALS, T=        0.00
 DIRECT TRANSFORMATION SKIPS AO INTEGRAL STORAGE ON DISK.

 Averaged energy =     -55.743268480

 State #    1  Energy =     -55.883763150  S =  0.500
 State #    2  Energy =     -55.727608259  S =  0.500
 State #    3  Energy =     -55.618434031  S =  0.500

 Orbital energies for filled orbital space
  -15.983476
 Orbital energies for active orbital space
   -1.516365  -0.863415  -0.971915  -0.741231   0.385518
    0.209196   0.404662
 Orbital energies for external orbital space
    0.154825   0.205752   0.215319   0.536641   0.632316
    0.652957   0.756327   0.976130   1.009464   1.240807
    1.426036   1.456247   1.651564   1.808334   1.909344
    1.926559   2.171832   2.291659   2.585661   2.639149
    3.079757

 Zero values mean non-canonical orbitals.
 ... done with orbital canonicalization ...
 CPU     0: STEP CPU TIME=     0.61 TOTAL CPU TIME=         10.3 (      0.2 MIN)
 TOTAL WALL CLOCK TIME=         10.3 SECONDS, CPU UTILIZATION IS    99.90%

     --------------------------------------------
     PARTIAL TWO ELECTRON INTEGRAL TRANSFORMATION
     --------------------------------------------

 NUMBER OF CORE MOLECULAR ORBITALS     =    0
 NUMBER OF OCCUPIED MOLECULAR ORBITALS =    8
 TOTAL NUMBER OF MOLECULAR ORBITALS    =   29
 TOTAL NUMBER OF ATOMIC ORBITALS       =   30
 THRESHOLD FOR KEEPING TRANSFORMED 2E- INTEGRALS = 1.000E-09
 AO INTEGRALS WILL BE CALCULATED IN DIRECT MODE...
 DIRECT TRANSFORMATION SKIPS AO INTEGRAL STORAGE ON DISK.
 SCHWARZ INEQUALITY OVERHEAD:       465 INTEGRALS, T=        0.00

 PLAN A: REQUIREMENTS FOR FULLY IN-MEMORY TRANSFORMATION:
 # OF WORDS AVAILABLE =            100000000
 # OF WORDS NEEDED    =               221798

 PARALLEL ONLY WORKS WITH THE SEGMENTED ALGORITHM.
 ADJUSTING MEMORY TO USE SEGMENTED ALGORITHM.


 PLAN B: REQUIREMENTS FOR THE SEGMENTED TRANSFORMATION:
       MINIMUM=         124148 WORDS FOR 1 MOLECULAR ORBITAL PER PASS
       MAXIMUM=         221798 WORDS FOR ALL MOLECULAR ORBITALS IN 1 PASS
              (          13950 EXTRA WORDS INCLUDES 1 EXTRA ORBITAL/PASS)
 THIS RUN USES=         221798 WORDS,
 DISTRIBUTING   1 PASSES EACH CONTAINING     8 ORBITALS OVER   1 PROCESSORS.

 CHOOSING SEGMENTED PARTIAL TRANSFORMATION...
 DIRECT TRANSFORMATION SKIPS AO INTEGRAL STORAGE ON DISK.
 PASS #   1 TOOK        0.04 SECONDS.
 TOTAL NUMBER OF TRANSFORMED 2E- INTEGRALS KEPT =        19753
 ... END OF INTEGRAL TRANSFORMATION ...
 CPU     0: STEP CPU TIME=     0.04 TOTAL CPU TIME=         10.4 (      0.2 MIN)
 TOTAL WALL CLOCK TIME=         10.4 SECONDS, CPU UTILIZATION IS    99.81%

     --------     ------------------------------------------
     GMC-QDPT     Program written by H.Nakano (Kyushu Univ.)
     --------     ------------------------------------------

 *** Reference space

 Reference type: ORMAS (= Occupation restricted multiple active space)
 # of orbitals          =  7
 # of minimum electrons =  7
 # of maximum electrons =  7
 State symmetry    =    1 (input)
 2*Sz              =    1 (input)
 Spin multiplicity =    2 (input)
 Dimension of reference space =      1225  (from      3432 walks)

 Dimension of reference space =      1225  (from      1225 walks)

 <<<Ionized spaces for Ref-CI:
      0:         1225 /   -1-0:         1960 /  0-1-0:         2891

 ***                    ***
 *** Reference space CI ***
 ***                    ***

 Converged after   22 iterations

 Reference wavefunctions:

 State #    1  Energy =     -55.883763150  S =  0.500

      Det      Coef    Occupancy (Ignoring core)
      ---      ----    --------- --------- -----
        1    0.976451  11110001110000
       71    0.056482  11110001011000
      393    0.063524  10110101010010
      717    0.063305  11010011100001

 State #    2  Energy =     -55.727608259  S =  0.500

      Det      Coef    Occupancy (Ignoring core)
      ---      ----    --------- --------- -----
        1   -0.059813  11110001110000
       71    0.980638  11110001011000
      822   -0.064334  11010011001001

 State #    3  Energy =     -55.618434031  S =  0.500

      Det      Coef    Occupancy (Ignoring core)
      ---      ----    --------- --------- -----
       36    0.979929  11110001101000
      463    0.064566  10110101001010

 Davidson method: CPU/Wall time =           0.40 /           0.39 sec.

 Oscillator strength (invalid if E(1)/=E(GS)):
 -----------------------------------------
   State                        f
 -----------------------------------------
     2     F(REF-CI)=        0.0020627390
     3     F(REF-CI)=        0.0019247791
 -----------------------------------------

 Dipole moment matrix elements, x, y, z, in A.U.

 Dimension of ionized spaces for PT:
 (N-2) space:         1715 /  (N-1) space:         2842 /  N space:         2891
 (N+1) space:         2842 /  (N+2) space:         1715

 <<<Ionized spaces for internal:
         0:         1225 /      -1-0:         1960 /     0-1-0:         2891
  -1-0-1-0:         2842 / 0-1-0-1-0:         3381

 Diagonal elements of averaged one-particle density matrix:
       2       3       4       5       6       7       8
  0.9938  0.9865  0.9879  0.9924  0.0112  0.0168  0.0114
  0.9893  0.6581  0.6608  0.6628  0.0091  0.0119  0.0080

 Orbital energies:
 -------- Doubly-occupied orbitals (highest several orbs.) -------
             1
 -1.598348D+01
 -------- Active orbitals ----------------------------------------
             2            3            4            5            6
 -1.516365D+00-8.634146D-01-9.719154D-01-7.412309D-01 3.855178D-01
             7            8
  2.091965D-01 4.046624D-01
 -------- External orbitals (lowest several orbs.) ---------------
             9           10           11           12           13
  1.548254D-01 2.057519D-01 2.153193D-01 5.366410D-01 6.323163D-01
            14           15           16           17           18
  6.529570D-01 7.563268D-01 9.761303D-01 1.009464D+00 1.240807D+00

 *** Quasi-degeneracy checking

 === Det (|Ci| > 1.0D-01 and dE < 5.0D-03)

 # of small denominators (single excitations)
 State       dEmin  dE < 5.0D-03  dE < 5.0D-04  dE < 5.0D-05  dE < 5.0D-06
 ----- ----------- ------------- ------------- ------------- -------------
     1    5.00D-03             0             0             0             0
     2    5.00D-03             0             0             0             0
     3    5.00D-03             0             0             0             0

 # of small denominators (double excitations)
 State       dEmin  dE < 5.0D-03  dE < 5.0D-04  dE < 5.0D-05  dE < 5.0D-06
 ----- ----------- ------------- ------------- ------------- -------------
     1    5.00D-03             0             0             0             0
     2    5.00D-03             0             0             0             0
     3    5.00D-03             0             0             0             0

 *** Zeroth-Order Setup (Granovsky's zeroth-order vectors)
 Zeroth-order effective Hamiltonian
  (= Sum_i e(i)*<I|a+(i)a(i)|J> ):
                   1            2            3
     1 -7.340745D+00
     2  1.275725D-02-7.238541D+00
     3 -4.405195D-10 7.827209D-10-7.124518D+00

 Zeroth-order vectors:
 State #    1
       MC st            1           2           3
       Coeff    9.925D-01  -1.220D-01   2.446D-09
 State #    2
       MC st            2           1           3
       Coeff   -9.925D-01  -1.220D-01   6.430D-09
 State #    3
       MC st            3           2           1
       Coeff    1.000D+00   6.681D-09  -1.643D-09

 *** GMC-QDPT computation

 (Integral reading:  CPU/Wall time =           0.00 /           0.00 sec.)

 One-external:
   0 -ionized terms: CPU/Wall time =           0.03 /           0.03 sec.
 (-1)-ionized terms: CPU/Wall time =           0.10 /           0.11 sec.
 (+1)-ionized terms: CPU/Wall time =           0.03 /           0.02 sec.
 (+1)-ionized terms: CPU/Wall time =           0.00 /           0.00 sec.
 (+2)-ionized terms: CPU/Wall time =           0.00 /           0.01 sec.

 Internal:
 # of macro loops for internal contribution =         1 (input)
 Loop:    1
 Dimension of internal CISD space     =         0  (after screening)
 Space construction: CPU/Wall time =           0.02 /           0.01 sec.
 Internal terms:     CPU/Wall time =           0.00 /           0.00 sec.

 Two-external:
   0 -ionized terms: CPU/Wall time =           0.02 /           0.03 sec.
 (-1)-ionized terms: CPU/Wall time =           0.32 /           0.32 sec.
 (-2)-ionized terms: CPU/Wall time =           0.19 /           0.19 sec.

 Total time:         CPU/Wall time =           0.71 /           0.72 sec.

 ***                  ***
 *** GMC-QDPT Results ***
 ***                  ***

 Diagonal elements of effective Hamiltonian:
 Heff(  1) =   -55.97980370
 Heff(  2) =   -55.83803291
 Heff(  3) =   -55.72935716

 Off-diagonal elements of effective Hamiltonian:
                   1            2
     2  1.680713D-02
     3  3.436673D-10 6.330523D-10

 ******** GMC-QDPT energies ********
 ----------------------------------------------------------------------------
   State                        1st order                           2nd order
 ----------------------------------------------------------------------------
     1     E(REF-CI)=      -55.8837631504   E(GMC-QDPT2)=      -55.9817689662
     2     E(REF-CI)=      -55.7276082586   E(GMC-QDPT2)=      -55.8360676384
     3     E(REF-CI)=      -55.6184340307   E(GMC-QDPT2)=      -55.7293571595
 ----------------------------------------------------------------------------

 Excitation energies (invalid if E(1)/=E(GS)):
 ----------------------------------------------------------------------------
   State                        1st order                           2nd order
 ----------------------------------------------------------------------------

     TZ Sorted GMC-PT ENERGIES:
         1      -55.9817689662
         2      -55.8360676384
         3      -55.7293571595
     2     E(REF-CI)=        4.2491932 eV   E(GMC-QDPT2)=        3.9647371 eV
     3     E(REF-CI)=        7.2199768 eV   E(GMC-QDPT2)=        6.8684786 eV
 ----------------------------------------------------------------------------

 Main characters of perturbed GMC-QDPT states:

 State #    1  Energy =     -55.981768966  S =  0.500

      Det      Coef    Occupancy (Ignoring core)
      ---      ----    --------- --------- -----
        1    0.976788  11110001110000
       71    0.050676  11110001011000
      393    0.063445  10110101010010
      717    0.063312  11010011100001

 State #    2  Energy =     -55.836067638  S =  0.500

      Det      Coef    Occupancy (Ignoring core)
      ---      ----    --------- --------- -----
        1   -0.054032  11110001110000
       71    0.980955  11110001011000
      822   -0.064358  11010011001001

 State #    3  Energy =     -55.729357160  S =  0.500

      Det      Coef    Occupancy (Ignoring core)
      ---      ----    --------- --------- -----
       36    0.979929  11110001101000
      463    0.064566  10110101001010

 <<<Max |V/de| = 2.751D-02  Thresh = 1.000D+00

 Oscillator strength (invalid if E(1)/=E(GS)):
 ----------------------------------------------------------------------------
   State                        1st order                           2nd order
 ----------------------------------------------------------------------------
     2     F(REF-CI)=        0.0020627390     F(GMC-PT2)=        0.0019957853
     3     F(REF-CI)=        0.0019247791     F(GMC-PT2)=        0.0018888008
 ----------------------------------------------------------------------------

 Dipole moment matrix elements, x, y, z, in A.U.
States    1    1        0.2470062186        0.0000000033        0.7235411714
States    1    2        0.0189343042        0.0000000052        0.1420850734
States    1    3        0.0000000018        0.1059458319       -0.0000000064
States    2    1        0.0189343042        0.0000000052        0.1420850734
States    2    2        0.1966440406       -0.0000000252        0.2926521663
States    2    3        0.0000000117       -0.2753183131       -0.0000000007
States    3    1        0.0000000018        0.1059458319       -0.0000000064
States    3    2        0.0000000117       -0.2753183131       -0.0000000007
States    3    3        0.4720293259        0.0000000331        0.2779149149

 Oscillator strength (valid only when positive): 
 ----------------------------------------------------------------------------
  States                        1st order                           2nd order
 ----------------------------------------------------------------------------
  1  1     F(REF-CI)=        0.0000000000     F(GMC-PT2)=        0.0000000000
  1  2     F(REF-CI)=       -0.0020627390     F(GMC-PT2)=       -0.0019957853
  1  3     F(REF-CI)=       -0.0019247791     F(GMC-PT2)=       -0.0018888008
  2  1     F(REF-CI)=        0.0020627390     F(GMC-PT2)=        0.0019957853
  2  2     F(REF-CI)=        0.0000000000     F(GMC-PT2)=        0.0000000000
  2  3     F(REF-CI)=       -0.0055419190     F(GMC-PT2)=       -0.0053924485
  3  1     F(REF-CI)=        0.0019247791     F(GMC-PT2)=        0.0018888008
  3  2     F(REF-CI)=        0.0055419190     F(GMC-PT2)=        0.0053924485
  3  3     F(REF-CI)=        0.0000000000     F(GMC-PT2)=        0.0000000000
 CPU     0: STEP CPU TIME=     1.17 TOTAL CPU TIME=         11.5 (      0.2 MIN)
 TOTAL WALL CLOCK TIME=         11.6 SECONDS, CPU UTILIZATION IS    99.91%

     !!! DIABATIZATION FOR REF CI STATES !!!

 *******************************************************
          $DMO GROUP FOUND IN THE INPUT.
        DIABATIZATION OF ADIABATIC STATES BEGINS.
     PROGRAMMED BY TAO ZENG (CARLETON UNIVERSITY).
               Email: toby.zeng@carleton.ca
     See T. Zeng, J. Chem. Phys. 2017, 146, 144103
 *******************************************************

 *************************************************************************
     STEP 1: TRANSFORMATION OF ADIABATIC STATES TO THE DMO REPRESENTATION
         See Atchity and Ruedenberg, J. Chem. Phys. 1999, 111, 2910
 *************************************************************************

Read in Diabatic Molecualr Orbitals:

                      1          2          3          4          5

    1  N  1  S    0.008609   0.000000   0.000000  -0.013219   0.279491
    2  N  1  S    0.442914  -0.000000   0.000000  -0.184329   0.867803
    3  N  1  S    0.276913   0.000000  -0.000000  -0.288315   0.144236
    4  N  1  X   -0.000000   0.493155  -0.024636  -0.000000  -0.000000
    5  N  1  Y    0.000000   0.024636   0.493155  -0.000000   0.000000
    6  N  1  Z    0.090197   0.000000   0.000000   0.593421   0.705309
    7  N  1  X   -0.000000   0.210628  -0.010522   0.000000   0.000000
    8  N  1  Y    0.000000   0.010522   0.210628  -0.000000  -0.000000
    9  N  1  Z   -0.004381   0.000000   0.000000   0.381592  -0.106092
   10  N  1 XX   -0.000457   0.010719  -0.000535  -0.012387   0.006153
   11  N  1 YY   -0.000457  -0.010719   0.000535  -0.012387   0.006153
   12  N  1 ZZ    0.000914  -0.000000   0.000000   0.024773  -0.012306
   13  N  1 XY    0.000000  -0.000618  -0.012377  -0.000000   0.000000
   14  N  1 XZ   -0.000000   0.026529  -0.001325  -0.000000   0.000000
   15  N  1 YZ    0.000000   0.001325   0.026529  -0.000000   0.000000
   16  H  2  S    0.194462  -0.176074   0.343485   0.112865  -0.523343
   17  H  2  S    0.003574  -0.023812   0.046452   0.024014  -0.054445
   18  H  2  X    0.018760   0.009101   0.022834   0.009336  -0.039151
   19  H  2  Y   -0.032493   0.022287  -0.020044  -0.016171   0.067811
   20  H  2  Z   -0.009251   0.008464  -0.016511   0.018769  -0.010566
   21  H  3  S    0.194462  -0.209430  -0.324227   0.112865  -0.523343
   22  H  3  S    0.003574  -0.028322  -0.043847   0.024014  -0.054445
   23  H  3  X    0.018760   0.006781  -0.023627   0.009336  -0.039151
   24  H  3  Y    0.032493  -0.024174  -0.017723   0.016171  -0.067811
   25  H  3  Z   -0.009251   0.010067   0.015585   0.018769  -0.010566
   26  H  4  S    0.194462   0.385503  -0.019258   0.112865  -0.523343
   27  H  4  S    0.003574   0.052134  -0.002604   0.024014  -0.054445
   28  H  4  X   -0.037519  -0.032295   0.001613  -0.018672   0.078302
   29  H  4  Y    0.000000   0.001067   0.021353  -0.000000   0.000000
   30  H  4  Z   -0.009251  -0.018530   0.000926   0.018769  -0.010566

                      6          7

    1  N  1  S    0.000000  -0.000000
    2  N  1  S    0.000000  -0.000000
    3  N  1  S   -0.000000   0.000000
    4  N  1  X   -0.930415  -0.002083
    5  N  1  Y   -0.002083   0.930415
    6  N  1  Z   -0.000000   0.000000
    7  N  1  X   -0.046866  -0.000105
    8  N  1  Y   -0.000105   0.046866
    9  N  1  Z   -0.000000   0.000000
   10  N  1 XX    0.001538   0.000003
   11  N  1 YY   -0.001538  -0.000003
   12  N  1 ZZ   -0.000000   0.000000
   13  N  1 XY   -0.000004   0.001776
   14  N  1 XZ    0.039985   0.000090
   15  N  1 YZ    0.000090  -0.039985
   16  H  2  S   -0.362630  -0.631354
   17  H  2  S   -0.065964  -0.114846
   18  H  2  X    0.002763  -0.037520
   19  H  2  Y    0.037435   0.040736
   20  H  2  Z    0.001882   0.003276
   21  H  3  S   -0.365454   0.629724
   22  H  3  S   -0.066477   0.114549
   23  H  3  X    0.002595   0.037532
   24  H  3  Y   -0.037617   0.040567
   25  H  3  Z    0.001896  -0.003268
   26  H  4  S    0.728084   0.001630
   27  H  4  S    0.132441   0.000297
   28  H  4  X   -0.062317  -0.000140
   29  H  4  Y    0.000055  -0.024345
   30  H  4  Z   -0.003778  -0.000008

NUMBER OF SUB ACTIVE SPACES:   1
ROTATE ACTIVE MOS TO DMOS IN EACH SUB-SPACE

SPACE  1:

OVERLAP BETWEEN ORTHONORMAL AND PRE-ORTHONORMAL REF. DMOS

             1           2           3           4           5

    1    0.9866899   0.0287218  -0.0014348  -0.0044257   0.0034237
    2    0.0287218   0.9306991   0.0049763   0.0348905  -0.0552327
    3   -0.0014348   0.0049763   1.0300652  -0.0017430   0.0027592
    4   -0.0044257   0.0348905  -0.0017430   0.9972460  -0.0063618
    5    0.0034237  -0.0552327   0.0027592  -0.0063618   1.0691271
    6   -0.0021624  -0.0450347   0.0023296   0.0341892   0.0310878
    7   -0.0000048  -0.0018792  -0.0355942   0.0000766   0.0000696

             6           7

    1   -0.0021624  -0.0000048
    2   -0.0450347  -0.0018792
    3    0.0023296  -0.0355942
    4    0.0341892   0.0000766
    5    0.0310878   0.0000696
    6    1.0560295   0.0001009
    7    0.0001009   1.0109742
REFERENCE DMOS AFTER ORTHONORMALIZATION:

                      1          2          3          4          5

    1  N  1  S    0.007296   0.015469  -0.000773  -0.011864   0.262321
    2  N  1  S    0.444057   0.040426  -0.002020  -0.178577   0.811752
    3  N  1  S    0.278609   0.010370  -0.000518  -0.287613   0.132657
    4  N  1  X   -0.016346   0.491332  -0.024545   0.012569   0.050638
    5  N  1  Y   -0.000000   0.025531   0.511067   0.000000  -0.000000
    6  N  1  Z    0.091360   0.012264  -0.000613   0.600589   0.664735
    7  N  1  X   -0.006742   0.225895  -0.011285  -0.006676   0.012696
    8  N  1  Y   -0.000000   0.010305   0.206284  -0.000000   0.000000
    9  N  1  Z   -0.001804  -0.020614   0.001030   0.383094  -0.097711
   10  N  1 XX   -0.000903   0.012511  -0.000625  -0.012900   0.006265
   11  N  1 YY   -0.000222  -0.010840   0.000542  -0.011951   0.005173
   12  N  1 ZZ    0.001125  -0.001672   0.000084   0.024851  -0.011437
   13  N  1 XY   -0.000000  -0.000598  -0.011967   0.000000  -0.000000
   14  N  1 XZ   -0.000818   0.030553  -0.001526  -0.002418   0.000430
   15  N  1 YZ    0.000000   0.001220   0.024412  -0.000000   0.000000
   16  H  2  S    0.206349  -0.249337   0.316064   0.132064  -0.493034
   17  H  2  S    0.004811  -0.033279   0.041712   0.027195  -0.050756
   18  H  2  X    0.019023   0.006689   0.021009   0.008893  -0.036441
   19  H  2  Y   -0.034098   0.031382  -0.018569  -0.018307   0.064063
   20  H  2  Z   -0.009523   0.008326  -0.015937   0.018337  -0.009326
   21  H  3  S    0.206349  -0.279596  -0.289641   0.132064  -0.493034
   22  H  3  S    0.004811  -0.037271  -0.038187   0.027195  -0.050756
   23  H  3  X    0.019023   0.004561  -0.021571   0.008893  -0.036441
   24  H  3  Y    0.034098  -0.033077  -0.015349   0.018307  -0.064063
   25  H  3  Z   -0.009523   0.009873   0.015028   0.018337  -0.009326
   26  H  4  S    0.188671   0.411587  -0.020561   0.071789  -0.489287
   27  H  4  S    0.002455   0.058485  -0.002922   0.017293  -0.051548
   28  H  4  X   -0.037562  -0.031628   0.001580  -0.015183   0.073437
   29  H  4  Y    0.000000   0.000995   0.019917  -0.000000   0.000000
   30  H  4  Z   -0.008641  -0.021253   0.001062   0.019625  -0.010699

                      6          7

    1  N  1  S   -0.006662  -0.000015
    2  N  1  S   -0.015477  -0.000035
    3  N  1  S    0.006420   0.000014
    4  N  1  X   -0.861974  -0.001930
    5  N  1  Y   -0.002101   0.938357
    6  N  1  Z   -0.038301  -0.000086
    7  N  1  X   -0.034892  -0.000078
    8  N  1  Y   -0.000120   0.053639
    9  N  1  Z   -0.010411  -0.000023
   10  N  1 XX    0.002223   0.000005
   11  N  1 YY   -0.001686  -0.000004
   12  N  1 ZZ   -0.000537  -0.000001
   13  N  1 XY   -0.000003   0.001334
   14  N  1 XZ    0.039234   0.000088
   15  N  1 YZ    0.000087  -0.038690
   16  H  2  S   -0.344001  -0.613777
   17  H  2  S   -0.063341  -0.112184
   18  H  2  X    0.003683  -0.036359
   19  H  2  Y    0.035461   0.039691
   20  H  2  Z    0.001833   0.002694
   21  H  3  S   -0.346746   0.612230
   22  H  3  S   -0.063843   0.111900
   23  H  3  X    0.003520   0.036375
   24  H  3  Y   -0.035638   0.039532
   25  H  3  Z    0.001845  -0.002686
   26  H  4  S    0.719518   0.001611
   27  H  4  S    0.128877   0.000289
   28  H  4  X   -0.062110  -0.000139
   29  H  4  Y    0.000052  -0.023377
   30  H  4  Z   -0.004825  -0.000011

 -------------------------------------------
       MAXIMIZING MORMO OVERLAP TERM        
 -------------------------------------------
   SWEEP    VALUE       PROGRESS
     0     6.23344
     1     6.97375     0.74031339
     2     6.97593     0.00217734
     3     6.97593     0.00000010
     4     6.97593     0.00000000
     5     6.97593     0.00000000
     6     6.97593     0.00000000
 THE ROTATION IS DONE
FLIPPING SIGN FOR ORBITAL   7
ACTIVE ORBITALS AFTER MORMO:

                      1          2          3          4          5

    1  N  1  S    0.006626   0.023377  -0.001168  -0.012225   0.233158
    2  N  1  S    0.431905   0.056417  -0.002818  -0.186189   0.775437
    3  N  1  S    0.310030  -0.053976   0.002696  -0.278975   0.168613
    4  N  1  X   -0.001929   0.459511  -0.022955   0.031726   0.028513
    5  N  1  Y    0.000000   0.025313   0.506703   0.000000  -0.000000
    6  N  1  Z    0.085238   0.030679  -0.001533   0.599384   0.665857
    7  N  1  X   -0.025074   0.272827  -0.013629  -0.046301   0.047537
    8  N  1  Y    0.000000   0.009217   0.184503   0.000000  -0.000000
    9  N  1  Z    0.014028  -0.060660   0.003030   0.383190  -0.098349
   10  N  1 XX   -0.003369   0.022643  -0.001131  -0.014150   0.034880
   11  N  1 YY    0.002610  -0.022176   0.001108  -0.009356  -0.031514
   12  N  1 ZZ    0.000758  -0.000467   0.000023   0.023506  -0.003366
   13  N  1 XY    0.000000  -0.000177  -0.003540  -0.000000   0.000000
   14  N  1 XZ    0.000356   0.023384  -0.001168   0.001857  -0.041635
   15  N  1 YZ    0.000000   0.000960   0.019211   0.000000   0.000000
   16  H  2  S    0.190068  -0.197343   0.328295   0.117076  -0.475503
   17  H  2  S    0.003402  -0.051223   0.045256   0.031324  -0.059836
   18  H  2  X    0.007460   0.017803   0.011372   0.003278  -0.019467
   19  H  2  Y   -0.034220   0.019932  -0.033321  -0.015377   0.060030
   20  H  2  Z   -0.005760   0.002912  -0.013625   0.019727  -0.016385
   21  H  3  S    0.190068  -0.229079  -0.306993   0.117076  -0.475503
   22  H  3  S    0.003402  -0.055479  -0.039926   0.031324  -0.059836
   23  H  3  X    0.007460   0.016581  -0.013090   0.003278  -0.019467
   24  H  3  Y    0.034220  -0.023153  -0.031169   0.015377  -0.060030
   25  H  3  Z   -0.005760   0.004255   0.013267   0.019727  -0.016385
   26  H  4  S    0.189557   0.397005  -0.019833   0.091000  -0.505335
   27  H  4  S    0.002608   0.090631  -0.004528   0.018344  -0.059921
   28  H  4  X   -0.033041  -0.024265   0.001212  -0.019639   0.066264
   29  H  4  Y    0.000000   0.001124   0.022498   0.000000   0.000000
   30  H  4  Z   -0.014151  -0.027286   0.001363   0.017721  -0.008466

                      6          7

    1  N  1  S    0.026249   0.000059
    2  N  1  S    0.066559   0.000149
    3  N  1  S   -0.103038  -0.000231
    4  N  1  X   -0.859106  -0.001924
    5  N  1  Y   -0.002091   0.933653
    6  N  1  Z   -0.082759  -0.000185
    7  N  1  X   -0.035291  -0.000079
    8  N  1  Y   -0.000168   0.075036
    9  N  1  Z    0.026673   0.000060
   10  N  1 XX    0.037002   0.000083
   11  N  1 YY   -0.043284  -0.000097
   12  N  1 ZZ    0.006282   0.000014
   13  N  1 XY    0.000102  -0.045518
   14  N  1 XZ    0.024971   0.000056
   15  N  1 YZ    0.000126  -0.056326
   16  H  2  S   -0.310825  -0.610018
   17  H  2  S   -0.072990  -0.131303
   18  H  2  X    0.013191  -0.023828
   19  H  2  Y    0.027874   0.055897
   20  H  2  Z    0.011837  -0.015075
   21  H  3  S   -0.313553   0.608620
   22  H  3  S   -0.073577   0.130974
   23  H  3  X    0.013084   0.023887
   24  H  3  Y   -0.028124   0.055772
   25  H  3  Z    0.011769   0.015127
   26  H  4  S    0.698400   0.001564
   27  H  4  S    0.165746   0.000371
   28  H  4  X   -0.047398  -0.000106
   29  H  4  Y    0.000103  -0.045836
   30  H  4  Z   -0.012749  -0.000029

Actually Used Diabatic Molecualr Orbitals:

                      1          2          3          4          5

    1  N  1  S    0.006626   0.023377  -0.001168  -0.012225   0.233158
    2  N  1  S    0.431905   0.056417  -0.002818  -0.186189   0.775437
    3  N  1  S    0.310030  -0.053976   0.002696  -0.278975   0.168613
    4  N  1  X   -0.001929   0.459511  -0.022955   0.031726   0.028513
    5  N  1  Y    0.000000   0.025313   0.506703   0.000000  -0.000000
    6  N  1  Z    0.085238   0.030679  -0.001533   0.599384   0.665857
    7  N  1  X   -0.025074   0.272827  -0.013629  -0.046301   0.047537
    8  N  1  Y    0.000000   0.009217   0.184503   0.000000  -0.000000
    9  N  1  Z    0.014028  -0.060660   0.003030   0.383190  -0.098349
   10  N  1 XX   -0.003369   0.022643  -0.001131  -0.014150   0.034880
   11  N  1 YY    0.002610  -0.022176   0.001108  -0.009356  -0.031514
   12  N  1 ZZ    0.000758  -0.000467   0.000023   0.023506  -0.003366
   13  N  1 XY    0.000000  -0.000177  -0.003540  -0.000000   0.000000
   14  N  1 XZ    0.000356   0.023384  -0.001168   0.001857  -0.041635
   15  N  1 YZ    0.000000   0.000960   0.019211   0.000000   0.000000
   16  H  2  S    0.190068  -0.197343   0.328295   0.117076  -0.475503
   17  H  2  S    0.003402  -0.051223   0.045256   0.031324  -0.059836
   18  H  2  X    0.007460   0.017803   0.011372   0.003278  -0.019467
   19  H  2  Y   -0.034220   0.019932  -0.033321  -0.015377   0.060030
[...]
      121    0.043101   -0.043101  +22-00+
      253    0.037373    0.037373  20+2-+0
      472    0.034634    0.034634  2+020-+
      459   -0.034372    0.034372  20+2+-0
        7    0.033934    0.033934  22-+0+0
      285    0.031556   -0.031556  02+2200
       41   -0.030878    0.030878  22+-0+0
       86   -0.030020   -0.030020  2+2-00+
      356    0.028845    0.028845  22+0020
      284   -0.028192    0.028192  +-+2200
      250    0.027401    0.027401  -++2200
       77    0.026309   -0.026309  2+-20+0
      367   -0.025940    0.025940  220+0-+
      297   -0.025171    0.025171  +202-0+
      716    0.024943    0.024943  22+0002
      771   -0.024932   -0.024932  +22+00-
      499    0.022958   -0.022958  02+2020
      498    0.022715   -0.022715  +-+2020
      491    0.022628   -0.022628  +2+20-0
       44    0.022489   -0.022489  -2+20+0
      142    0.022487    0.022487  22+0200
      464   -0.022088   -0.022088  -++2020
       52   -0.020798    0.020798  220200+
      286   -0.020754    0.020754  +2+--+0
      707    0.020249    0.020249  220+0+-

 ---------------------------------------
    -DIABATIC STATES IN PROTOTYPES-     
 ---------------------------------------

     STATE:    1
 Group Ref#    Coefficients
     1    1    0.977835
     2    2    0.003657
     3    3    0.000066

WEIGHT OF LISTED PROTOTYPES:   95.62%

     STATE:    2
 Group Ref#    Coefficients
     1    1    0.003657
     2    2    0.977783
     3    3    0.000284

WEIGHT OF LISTED PROTOTYPES:   95.61%

     STATE:    3
 Group Ref#    Coefficients
     1    1    0.000066
     2    2    0.000284
     3    3    0.971810

WEIGHT OF LISTED PROTOTYPES:   94.44%

 --------------------------------------------------
 IN DIRECT MAX. DIABATIZATION FOR GMC-QDPT

 DIRECT MAXIMIZATION (DM) WITHOUT TRUNCATING ADIABATS
 EXPANSIONS INTO THE REFERENCE CONFIGURATION SPACE
 --------------------------------------------------

 -------------------------------------------
 - DM DIABT PT HAMILTONIAN MATRIX ELEMENTS -
 -------------------------------------------
                                            
 --- DIABATIC ENERGIES (DIAGONAL ELEMENT) ---       HARTREE            EV
 STATE #  1'S GMC-PT-LEVEL DIABATIC ENERGY=     -55.970694063       0.000000000
 STATE #  2'S GMC-PT-LEVEL DIABATIC ENERGY=     -55.847142138       3.362019128
 STATE #  3'S GMC-PT-LEVEL DIABATIC ENERGY=     -55.729357563       6.567100658

 --- DIABATIC COUPLINGS (OFF DIAGONAL ELEMENTS)---  HATREE            EV
 STATE #  1 &  2'S GMC-PT-LEVEL COUPLING  =      -0.038613028      -1.050714016
 STATE #  1 &  3'S GMC-PT-LEVEL COUPLING  =       0.000094545       0.002572703
 STATE #  2 &  3'S GMC-PT-LEVEL COUPLING  =       0.000217381       0.005915227

 ---------------------------------------
     - ROTATION TO DIABATIC STATES -    
 ---------------------------------------
 ROWS=ADIABATIC, COLUMNS=DIABATIC STATES

             1           2           3

    1   -0.9612435  -0.2757003   0.0005975
    2   -0.2757009   0.9612419  -0.0017139
    3   -0.0001018  -0.0018122  -0.9999984

 ---------------------------------------
          - DIABATIC STATES -           
 ---------------------------------------

 State #    1  Energy =     -55.970694063

      Det      Coef        Coefp    Occupancy (Ignoring core)
      ---      ----        ----    --------- --------- -----
        1    0.959132   -0.959132  222+000
        8   -0.118444    0.118444  2-2+0+0
        4   -0.089637    0.089637  2-2++00
      386    0.087328   -0.087328  2+2+0-0
      176    0.086239   -0.086239  2+2+-00
      393   -0.075898   -0.075898  202+020
        6    0.064507   -0.064507  22200+0
      717   -0.064171   -0.064171  220+002
      708    0.042414   -0.042414  2-++0+-
      402    0.039471   -0.039471  2+-+0-+
      215   -0.035840   -0.035840  022+200
      705   -0.033690   -0.033690  -2+++0-
      227   -0.033483   -0.033483  +2-+-0+
      218    0.032970   -0.032970  +-2+-+0
      390    0.032886   -0.032886  -+2++-0
       76    0.031117    0.031117  2+2-0+0
      212    0.029017    0.029017  +220200
      113   -0.028923    0.028923  +-220+0
        2    0.027756   -0.027756  2220+00
      143   -0.027700   -0.027700  220+200
       51   -0.026911    0.026911  22+-00+
      424   -0.025574   -0.025574  +-2++-0
      387   -0.023665    0.023665  2+20+-0
      184   -0.023591   -0.023591  -+2+-+0
      122    0.022695    0.022695  +2-200+
      702    0.022450    0.022450  22+0+0-
      391    0.021914   -0.021914  2+20020
     1051   -0.021504   -0.021504  2+++0--
      357   -0.021296   -0.021296  220+020
      742   -0.021097   -0.021097  2+-+0+-
      773    0.021084   -0.021084  +2-++0-
      159    0.020873   -0.020873  -2++-0+
        5    0.020808    0.020808  -22++00
      368   -0.020444   -0.020444  2-++0-+

 State #    2  Energy =     -55.847142138

      Det      Coef        Coefp    Occupancy (Ignoring core)
      ---      ----        ----    --------- --------- -----
       71   -0.960742    0.960742  2+22000
       74    0.118071   -0.118071  2022+00
       76    0.096831    0.096831  2+2-0+0
      386   -0.084574    0.084574  2+2+0-0
      106    0.068215    0.068215  +222000
       78    0.066487   -0.066487  20220+0
      822    0.061801   -0.061801  2+02002
       36    0.046250    0.046250  22+2000
      813    0.045134   -0.045134  20+20+-
      113    0.038813   -0.038813  +-220+0
      323   -0.037227    0.037227  +022-+0
      320    0.034866    0.034866  0+22200
      810   -0.034072   -0.034072  -++2+0-
      332   -0.031611    0.031611  ++-2-0+
       81    0.031536    0.031536  202-++0
      180   -0.030372    0.030372  -+2+200
      317    0.029886   -0.029886  ++2-200
      183   -0.029163    0.029163  202+-+0
       38   -0.029030    0.029030  2202+00
      177    0.028593   -0.028593  2+20200
      111    0.028490   -0.028490  +22-0+0
       99   -0.028475    0.028475  20-20++
      806    0.027994    0.027994  2++200-
      248    0.027961   -0.027961  2+02200
       87   -0.026006    0.026006  2+-200+
      393   -0.025640   -0.025640  202+020
       42   -0.024145    0.024145  22020+0
      529    0.024119    0.024119  +022+-0
        6    0.023846   -0.023846  22200+0
      807   -0.023103    0.023103  2++-+0-
      526   -0.022325   -0.022325  ++220-0
      192   -0.022139    0.022139  2+-+-0+
      534    0.021631    0.021631  0+22020
      751    0.021171   -0.021171  2+20002
      462    0.020763   -0.020763  2+02020
       51    0.020397   -0.020397  22+-00+

 State #    3  Energy =     -55.729357563

      Det      Coef        Coefp    Occupancy (Ignoring core)
      ---      ----        ----    --------- --------- -----
       36   -0.960421   -0.960421  22+2000
      246   -0.098183   -0.098183  2++2-00
      456   -0.089143   -0.089143  2++20-0
      463    0.079386   -0.079386  20+2020
       43    0.069942    0.069942  2-+20+0
      351   -0.067583   -0.067583  22++0-0
       39    0.067012    0.067012  2-+2+00
       41    0.052420   -0.052420  22+-0+0
       52    0.051528   -0.051528  220200+
       71   -0.046233    0.046233  2+22000
      472   -0.046014   -0.046014  2+020-+
      121   -0.042033    0.042033  +22-00+
      112   -0.039716   -0.039716  +2-20+0
      285    0.036424   -0.036424  02+2200
      460   -0.034916   -0.034916  -++2+-0
      297    0.033392   -0.033392  +202-0+
      288   -0.032551   -0.032551  +-+2-+0
       73    0.031171   -0.031171  2+-2+00
      282    0.029964    0.029964  +2+-200
      145   -0.029730   -0.029730  -2++200
      142    0.028839    0.028839  22+0200
       64    0.028558   -0.028558  2-020++
      281    0.028476   -0.028476  +2+2-00
       16   -0.028156    0.028156  222000+
      457   -0.027587    0.027587  2++-+-0
      148   -0.027052   -0.027052  2-++-+0
      254    0.026028   -0.026028  -++2-+0
      108   -0.025150   -0.025150  +2-2+00
      461    0.024801   -0.024801  2++-020
      358   -0.024083    0.024083  2-++020
      157    0.023645   -0.023645  220+-0+
       46    0.023642   -0.023642  2-+-++0
      494    0.023468   -0.023468  +-+2+-0
      771    0.023410    0.023410  +22+00-
      716    0.023125    0.023125  22+0002
      561    0.023050    0.023050  2+++--0
      491    0.020254   -0.020254  +2+20-0

 ---------------------------------------
      - DIABATIC STATES IN CMO -        
 ---------------------------------------

 State #    1  Energy =     -55.970694063

      Det      Coef        Coefp    Occupancy (Ignoring core)
      ---      ----        ----    --------- --------- -----
        1    0.924034   -0.924034  222+000
       71    0.319162   -0.319162  2+22000
      393   -0.064717   -0.064717  202+020
      717   -0.060578   -0.060578  220+002
       17   -0.043052   -0.043052  22-+00+
      402   -0.041818    0.041818  2+-+0-+
      179   -0.041810   -0.041810  202+200
      357   -0.036575   -0.036575  220+020
      389    0.034635    0.034635  202++-0
        4    0.033455   -0.033455  2-2++00
      708   -0.032450    0.032450  2-++0+-
      215   -0.030707   -0.030707  022+200
      106   -0.028832   -0.028832  +222000
      183   -0.028176    0.028176  202+-+0
        8   -0.028154    0.028154  2-2+0+0
        6    0.027246   -0.027246  22200+0
      214    0.026571    0.026571  +-2+200
      742    0.025492    0.025492  2+-+0+-
      391   -0.025299    0.025299  2+20020
       51    0.025113   -0.025113  22+-00+
      227    0.024611    0.024611  +2-+-0+
      390    0.024038   -0.024038  -+2++-0
      113   -0.024032    0.024032  +-220+0
      705    0.023996    0.023996  -2+++0-
      122   -0.023835   -0.023835  +2-200+
      394    0.023513   -0.023513  -+2+020
      706   -0.023009   -0.023009  22+00+-
      366    0.022046   -0.022046  22+00-+
      180   -0.021976    0.021976  -+2+200
      437    0.021799    0.021799  +2-+0-+
       76    0.021473    0.021473  2+2-0+0
      822   -0.021403    0.021403  2+02002
      709    0.020568    0.020568  -2++0+-
       72   -0.020552   -0.020552  2+2-+00
      428   -0.020094   -0.020094  +-2+020

 State #    2  Energy =     -55.847142138

      Det      Coef        Coefp    Occupancy (Ignoring core)
      ---      ----        ----    --------- --------- -----
       71   -0.928964    0.928964  2+22000
        1    0.321239   -0.321239  222+000
      822    0.060814   -0.060814  2+02002
      113    0.043909   -0.043909  +-220+0
      462    0.039733   -0.039733  2+02020
      813   -0.035075    0.035075  20+20+-
      320    0.031454    0.031454  0+22200
      183   -0.030957    0.030957  202+-+0
       42   -0.030448    0.030448  22020+0
        6    0.029459   -0.029459  22200+0
       74    0.028035   -0.028035  2022+00
      177    0.027655   -0.027655  2+20200
      811    0.025858   -0.025858  2++-0+-
      179   -0.025640   -0.025640  202+200
      810    0.024039    0.024039  -++2+0-
      332    0.024015   -0.024015  ++-2-0+
      319   -0.023100   -0.023100  +022200
       79   -0.023051   -0.023051  -+220+0
      534    0.021717    0.021717  0+22020
      107   -0.021676    0.021676  +22-+00
      180   -0.021549    0.021549  -+2+200
      751    0.021510   -0.021510  2+20002
      542    0.021435   -0.021435  ++-20-+
      471   -0.021160   -0.021160  2++-0-+
       99    0.021115   -0.021115  20-20++
      526   -0.020858   -0.020858  ++220-0
      192    0.020367   -0.020367  2+-+-0+
      814    0.020101    0.020101  -++20+-
      321   -0.020046   -0.020046  ++2--+0

 State #    3  Energy =     -55.729357563

      Det      Coef        Coefp    Occupancy (Ignoring core)
      ---      ----        ----    --------- --------- -----
       36   -0.979927   -0.979927  22+2000
      463    0.064566   -0.064566  20+2020
      249    0.048991   -0.048991  20+2200
      112   -0.045116   -0.045116  +2-20+0
      121    0.043101   -0.043101  +22-00+
      253    0.037373    0.037373  20+2-+0
      472    0.034634    0.034634  2+020-+
      459   -0.034372    0.034372  20+2+-0
        7    0.033934    0.033934  22-+0+0
      285    0.031556   -0.031556  02+2200
       41   -0.030878    0.030878  22+-0+0
       86   -0.030020   -0.030020  2+2-00+
      356    0.028845    0.028845  22+0020
      284   -0.028192    0.028192  +-+2200
      250    0.027401    0.027401  -++2200
       77    0.026309   -0.026309  2+-20+0
      367   -0.025940    0.025940  220+0-+
      297   -0.025171    0.025171  +202-0+
      716    0.024943    0.024943  22+0002
      771   -0.024932   -0.024932  +22+00-
      499    0.022958   -0.022958  02+2020
      498    0.022715   -0.022715  +-+2020
      491    0.022628   -0.022628  +2+20-0
       44    0.022489   -0.022489  -2+20+0
      142    0.022487    0.022487  22+0200
      464   -0.022088   -0.022088  -++2020
       52   -0.020798    0.020798  220200+
      286   -0.020754    0.020754  +2+--+0
      707    0.020249    0.020249  220+0+-

 ---------------------------------------
    -DIABATIC STATES IN PROTOTYPES-     
 ---------------------------------------

     STATE:    1
 Group Ref#    Coefficients
     1    1    0.977835
     2    2    0.003657
     3    3    0.000065

WEIGHT OF LISTED PROTOTYPES:   95.62%

     STATE:    2
 Group Ref#    Coefficients
     1    1    0.003657
     2    2    0.977783
     3    3    0.000283

WEIGHT OF LISTED PROTOTYPES:   95.61%

     STATE:    3
 Group Ref#    Coefficients
     1    1    0.000066
     2    2    0.000285
     3    3    0.971810

WEIGHT OF LISTED PROTOTYPES:   94.44%

     DIRECT MAX. DIABATIZATION FINISHED    
 CPU     0: STEP CPU TIME=     0.24 TOTAL CPU TIME=         11.8 (      0.2 MIN)
 TOTAL WALL CLOCK TIME=         11.8 SECONDS, CPU UTILIZATION IS    99.83%

DIABATS FOR SPIN-ORBIT CALCULATION ARE READY

TRANSITION DIPOLES BETWEEN ADIABATS (in A.U.):

STATE PAIR      X         Y         Z
    1    1  0.247006  0.000000  0.723541
    2    1  0.018934  0.000000  0.142085
    2    2  0.196644 -0.000000  0.292652
    3    1  0.000000  0.105946 -0.000000
    3    2  0.000000 -0.275318 -0.000000
    3    3  0.472029  0.000000  0.277915


TRANSITION DIPOLES BETWEEN DIABATS (in A.U.):

STATE PAIR      X         Y         Z
    1    1  0.253214  0.000005  0.766098
    2    1 -0.002709  0.000077 -0.006293
    2    2  0.190437  0.001066  0.250095
    3    1  0.000027  0.025934 -0.000038
    3    2  0.000511  0.293855  0.000051
    3    3  0.472028 -0.001071  0.277915

TRANSITION DIPOLES BETWEEN DIRECT MAX. DIABATS (in A.U.):

STATE PAIR      X         Y         Z
    1    1  0.253214  0.000005  0.766098
    2    1 -0.002709  0.000077 -0.006293
    2    2  0.190437  0.001065  0.250095
    3    1  0.000027  0.025934 -0.000038
    3    2  0.000511  0.293855  0.000051
    3    3  0.472028 -0.001070  0.277915
 No $TRANST Group Found.
 Quit without doing spin-orbit coupling
 ..... DONE WITH MP2 ENERGY .....
 CPU     0: STEP CPU TIME=     0.01 TOTAL CPU TIME=         11.8 (      0.2 MIN)
 TOTAL WALL CLOCK TIME=         11.8 SECONDS, CPU UTILIZATION IS    99.92%
            100000000  WORDS OF DYNAMIC MEMORY USED
 EXECUTION OF GAMESS TERMINATED NORMALLY Wed Nov 16 19:25:22 2022
 DDI: 715512 bytes (0.7 MB / 0 MWords) used by master data server.

 ----------------------------------------
 CPU timing information for all processes
 ========================================
 0: 11.532 + 0.264 = 11.797
 ----------------------------------------
Note: The following floating-point exceptions are signalling: IEEE_DENORMAL
 ddikick.x: exited gracefully.
unset echo
----- accounting info -----
Files used on the master node io002 were:
-rw-r--r-- 1 bsonghao nooijen   20692 Nov 16 19:25 /scratch/bsonghao/nh3_diabatization_2d_at_mode_7_8_dist0.0_0.5.F05
-rw-r--r-- 1 bsonghao nooijen  363520 Nov 16 19:25 /scratch/bsonghao/nh3_diabatization_2d_at_mode_7_8_dist0.0_0.5.F09
-rw-r--r-- 1 bsonghao nooijen 1995920 Nov 16 19:25 /scratch/bsonghao/nh3_diabatization_2d_at_mode_7_8_dist0.0_0.5.F10
-rw-r--r-- 1 bsonghao nooijen  105272 Nov 16 19:25 /scratch/bsonghao/nh3_diabatization_2d_at_mode_7_8_dist0.0_0.5.F13
-rw-r--r-- 1 bsonghao nooijen  180312 Nov 16 19:25 /scratch/bsonghao/nh3_diabatization_2d_at_mode_7_8_dist0.0_0.5.F15
-rw-r--r-- 1 bsonghao nooijen       0 Nov 16 19:25 /scratch/bsonghao/nh3_diabatization_2d_at_mode_7_8_dist0.0_0.5.F16
-rw-r--r-- 1 bsonghao nooijen    9808 Nov 16 19:25 /scratch/bsonghao/nh3_diabatization_2d_at_mode_7_8_dist0.0_0.5.F70
-rw-r--r-- 1 bsonghao nooijen    9808 Nov 16 19:25 /scratch/bsonghao/nh3_diabatization_2d_at_mode_7_8_dist0.0_0.5.F71
-rw-r--r-- 1 bsonghao nooijen   19608 Nov 16 19:25 /scratch/bsonghao/nh3_diabatization_2d_at_mode_7_8_dist0.0_0.5.F72
-rw-r--r-- 1 bsonghao nooijen   19608 Nov 16 19:25 /scratch/bsonghao/nh3_diabatization_2d_at_mode_7_8_dist0.0_0.5.F73
-rw-r--r-- 1 bsonghao nooijen 1920824 Nov 16 19:25 /scratch/bsonghao/nh3_diabatization_2d_at_mode_7_8_dist0.0_0.5.F74
-rw-r--r-- 1 bsonghao nooijen       0 Nov 16 19:25 /scratch/bsonghao/nh3_diabatization_2d_at_mode_7_8_dist0.0_0.5.F75
-rw-r--r-- 1 bsonghao nooijen   58848 Nov 16 19:25 /scratch/bsonghao/nh3_diabatization_2d_at_mode_7_8_dist0.0_0.5.F76
-rw-r--r-- 1 bsonghao nooijen       0 Nov 16 19:25 /scratch/bsonghao/nh3_diabatization_2d_at_mode_7_8_dist0.0_0.5.F77
-rw-r--r-- 1 bsonghao nooijen    1864 Nov 16 19:25 /scratch/bsonghao/nh3_diabatization_2d_at_mode_7_8_dist0.0_0.5.F78
-rw-r--r-- 1 bsonghao nooijen   39208 Nov 16 19:25 /scratch/bsonghao/nh3_diabatization_2d_at_mode_7_8_dist0.0_0.5.F79
-rw-r--r-- 1 bsonghao nooijen     104 Nov 16 19:25 /scratch/bsonghao/nh3_diabatization_2d_at_mode_7_8_dist0.0_0.5.F80
-rw-r--r-- 1 bsonghao nooijen   13472 Nov 16 19:25 /scratch/bsonghao/nh3_diabatization_2d_at_mode_7_8_dist0.0_0.5.F81
-rw-r--r-- 1 bsonghao nooijen      16 Nov 16 19:25 /scratch/bsonghao/nh3_diabatization_2d_at_mode_7_8_dist0.0_0.5.F82
-rw-r--r-- 1 bsonghao nooijen   19216 Nov 16 19:25 /scratch/bsonghao/nh3_diabatization_2d_at_mode_7_8_dist0.0_0.5.F83
-rw-r--r-- 1 bsonghao nooijen   29712 Nov 16 19:25 /scratch/bsonghao/nh3_diabatization_2d_at_mode_7_8_dist0.0_0.5.F84
-rw-r--r-- 1 bsonghao nooijen  290056 Nov 16 19:25 /scratch/bsonghao/nh3_diabatization_2d_at_mode_7_8_dist0.0_0.5.F85
-rw-r--r-- 1 bsonghao nooijen  566712 Nov 16 19:25 /scratch/bsonghao/nh3_diabatization_2d_at_mode_7_8_dist0.0_0.5.F86
-rw-r--r-- 1 bsonghao nooijen     656 Nov 16 19:25 /scratch/bsonghao/nh3_diabatization_2d_at_mode_7_8_dist0.0_0.5.F87
-rw-r--r-- 1 bsonghao nooijen   24976 Nov 16 19:25 /scratch/bsonghao/nh3_diabatization_2d_at_mode_7_8_dist0.0_0.5.F88
-rw-r--r-- 1 bsonghao nooijen     240 Nov 16 19:25 /scratch/bsonghao/nh3_diabatization_2d_at_mode_7_8_dist0.0_0.5.F89
-rw-r--r-- 1 bsonghao nooijen       0 Nov 16 19:25 /scratch/bsonghao/nh3_diabatization_2d_at_mode_7_8_dist0.0_0.5.F90
-rw-r--r-- 1 bsonghao nooijen   13760 Nov 16 19:25 /scratch/bsonghao/nh3_diabatization_2d_at_mode_7_8_dist0.0_0.5.F91
-rw-r--r-- 1 bsonghao nooijen   22776 Nov 16 19:25 /scratch/bsonghao/nh3_diabatization_2d_at_mode_7_8_dist0.0_0.5.F92
-rw-r--r-- 1 bsonghao nooijen   23168 Nov 16 19:25 /scratch/bsonghao/nh3_diabatization_2d_at_mode_7_8_dist0.0_0.5.F93
-rw-r--r-- 1 bsonghao nooijen   22776 Nov 16 19:25 /scratch/bsonghao/nh3_diabatization_2d_at_mode_7_8_dist0.0_0.5.F94
-rw-r--r-- 1 bsonghao nooijen   13760 Nov 16 19:25 /scratch/bsonghao/nh3_diabatization_2d_at_mode_7_8_dist0.0_0.5.F95
-rw-r--r-- 1 bsonghao nooijen   29440 Nov 16 19:25 /scratch/bsonghao/nh3_diabatization_2d_at_mode_7_8_dist0.0_0.5.F96
-rw-r--r-- 1 bsonghao nooijen    1184 Nov 16 19:25 /scratch/bsonghao/nh3_diabatization_2d_at_mode_7_8_dist0.0_0.5.F97
-rw-r--r-- 1 bsonghao nooijen    9808 Nov 16 19:25 /scratch/bsonghao/nh3_diabatization_2d_at_mode_7_8_dist0.0_0.5.F98
-rw-r--r-- 1 bsonghao nooijen   30264 Nov 16 19:25 /scratch/bsonghao/nh3_diabatization_2d_at_mode_7_8_dist0.0_0.5.F99
ls: No match.
ls: No match.
ls: No match.
Wed 16 Nov 2022 07:25:26 PM EST
0.283u 0.045s 0:15.17 2.1%	0+0k 48+224io 0pf+0w
