----- GAMESS execution script 'rungms' -----
This job is running on host io002
under operating system Linux at Wed 16 Nov 2022 08:22:28 PM EST
Available scratch disk space (Kbyte units) at beginning of the job is
Filesystem       1K-blocks       Used   Available Use% Mounted on
/dev/sdc1      15378471580 3278917120 11318349060  23% /scratch
GAMESS temporary binary files will be written to /scratch/bsonghao
GAMESS supplementary output files will be written to /home/bsonghao/.gamess_ascii_files/267638
Copying input file nh3_diabatization_2d_at_mode_7_8_dist0.8_-0.6.inp to your run's scratch directory...
cp nh3_diabatization_2d_at_mode_7_8_dist0.8_-0.6.inp /scratch/bsonghao/nh3_diabatization_2d_at_mode_7_8_dist0.8_-0.6.F05
unset echo
/home/bjb2chen/gamess/ddikick.x /home/bjb2chen/gamess/gamess.00.x nh3_diabatization_2d_at_mode_7_8_dist0.8_-0.6 -ddi 1 1 io002 -scr /scratch/bsonghao

 Distributed Data Interface kickoff program.
 Initiating 1 compute processes on 1 nodes to run the following command:
 /home/bjb2chen/gamess/gamess.00.x nh3_diabatization_2d_at_mode_7_8_dist0.8_-0.6 

          ******************************************************
          *         GAMESS VERSION = 02 AUG 2018 (R2)         *
          *             FROM IOWA STATE UNIVERSITY             *
          * M.W.SCHMIDT, K.K.BALDRIDGE, J.A.BOATZ, S.T.ELBERT, *
          *   M.S.GORDON, J.H.JENSEN, S.KOSEKI, N.MATSUNAGA,   *
          *          K.A.NGUYEN, S.J.SU, T.L.WINDUS,           *
          *       TOGETHER WITH M.DUPUIS, J.A.MONTGOMERY       *
          *         J.COMPUT.CHEM.  14, 1347-1363(1993)        *
          **************** 64 BIT LINUX VERSION ****************

  SINCE 1993, STUDENTS AND POSTDOCS WORKING AT IOWA STATE UNIVERSITY
  AND ALSO IN THEIR VARIOUS JOBS AFTER LEAVING ISU HAVE MADE IMPORTANT
  CONTRIBUTIONS TO THE CODE:
     IVANA ADAMOVIC, CHRISTINE AIKENS, YURI ALEXEEV, POOJA ARORA,
     ANDREY ASADCHEV, ROB BELL, PRADIPTA BANDYOPADHYAY, JONATHAN BENTZ,
     BRETT BODE, KURT BRORSEN, CALEB CARLIN, GALINA CHABAN, WEI CHEN,
     CHEOL HO CHOI, PAUL DAY, ALBERT DEFUSCO, NUWAN DESILVA, TIM DUDLEY,
     DMITRI FEDOROV, ALEX FINDLATER, GRAHAM FLETCHER, MARK FREITAG,
     KURT GLAESEMANN, ANASTASIA GUININA,
     DAN KEMP, GRANT MERRILL, NORIYUKI MINEZAWA, JONATHAN MULLIN,
     TAKESHI NAGATA, SEAN NEDD, HEATHER NETZLOFF, BOSILJKA NJEGIC, RYAN OLSON,
     MIKE PAK, BUU PHAM,
     SPENCER PRUITT, LUKE ROSKOP, JIM SHOEMAKER, LYUDMILA SLIPCHENKO,
     TONY SMITH, SAROM SOK LEANG, JIE SONG, TETSUYA TAKETSUGU, SIMON WEBB,
     PENG XU, SOOHAENG YOO, FEDERICO ZAHARIEV

  ADDITIONAL CODE HAS BEEN PROVIDED BY COLLABORATORS IN OTHER GROUPS:
     IOWA STATE UNIVERSITY:
          JOE IVANIC, AARON WEST, LAIMUTIS BYTAUTAS, KLAUS RUEDENBERG
     UNIVERSITY OF TOKYO: KIMIHIKO HIRAO, TAKAHITO NAKAJIMA,
          TAKAO TSUNEDA, MUNEAKI KAMIYA, SUSUMU YANAGISAWA,
          KIYOSHI YAGI, MAHITO CHIBA, SEIKEN TOKURA, NAOAKI KAWAKAMI
     UNIVERSITY OF AARHUS: FRANK JENSEN
     UNIVERSITY OF IOWA: VISVALDAS KAIRYS, HUI LI
     NATIONAL INST. OF STANDARDS AND TECHNOLOGY: WALT STEVENS, DAVID GARMER
     UNIVERSITY OF PISA: BENEDETTA MENNUCCI, JACOPO TOMASI
     UNIVERSITY OF MEMPHIS: HENRY KURTZ, PRAKASHAN KORAMBATH
     UNIVERSITY OF ALBERTA: TOBY ZENG, MARIUSZ KLOBUKOWSKI
     UNIVERSITY OF NEW ENGLAND: MARK SPACKMAN
     MIE UNIVERSITY: HIROAKI UMEDA
     NAT. INST. OF ADVANCED INDUSTRIAL SCIENCE AND TECHNOLOGY: KAZUO KITAURA
     MICHIGAN STATE UNIVERSITY:
          KAROL KOWALSKI, MARTA WLOCH, JEFFREY GOUR, JESSE LUTZ,
          WEI LI, JUN SHEN, J. EMILIANO DEUSTUA, PIOTR PIECUCH
     UNIVERSITY OF MINNESOTA:
          YINAN SHU
     UNIVERSITY OF SILESIA: MONIKA MUSIAL, STANISLAW KUCHARSKI
     FACULTES UNIVERSITAIRES NOTRE-DAME DE LA PAIX:
          OLIVIER QUINET, BENOIT CHAMPAGNE
     UNIVERSITY OF CALIFORNIA - SANTA BARBARA: BERNARD KIRTMAN
     INSTITUTE FOR MOLECULAR SCIENCE:
          KAZUYA ISHIMURA, MICHIO KATOUDA, AND SHIGERU NAGASE
     UNIVERSITY OF NOTRE DAME: ANNA POMOGAEVA, DAN CHIPMAN
     KYUSHU UNIVERSITY:
          HARUYUKI NAKANO,
          FENG LONG GU, JACEK KORCHOWIEC, MARCIN MAKOWSKI, AND YURIKO AOKI,
          HIROTOSHI MORI AND EISAKU MIYOSHI
     PENNSYLVANIA STATE UNIVERSITY:
          TZVETELIN IORDANOV, CHET SWALINA, JONATHAN SKONE,
          SHARON HAMMES-SCHIFFER
     WASEDA UNIVERSITY:
          MASATO KOBAYASHI, TOMOKO AKAMA, TSUGUKI TOUMA,
          TAKESHI YOSHIKAWA, YASUHIRO IKABATA, JUNJI SEINO,
          YUYA NAKAJIMA, HIROMI NAKAI
     NANJING UNIVERSITY: SHUHUA LI
     UNIVERSITY OF NEBRASKA:
          PEIFENG SU, DEJUN SI, NANDUN THELLAMUREGE, YALI WANG, HUI LI
     UNIVERSITY OF ZURICH: ROBERTO PEVERATI, KIM BALDRIDGE
     N. COPERNICUS UNIVERSITY AND JACKSON STATE UNIVERSITY:
          MARIA BARYSZ
     UNIVERSITY OF COPENHAGEN: Jimmy Kromann, CASPER STEINMANN
     TOKYO INSTITUTE OF TECHNOLOGY: HIROYA NAKATA
     NAGOYA UNIVERSITY: YOSHIO NISHIMOTO, STEPHAN IRLE
     MOSCOW STATE UNIVERSITY: VLADIMIR MIRONOV

 EXECUTION OF GAMESS BEGUN Wed Nov 16 20:22:28 2022

            ECHO OF THE FIRST FEW INPUT CARDS -
 INPUT CARD> $system kdiag=3 mwords=100 memddi=1000 parall=.t. $end                         
 INPUT CARD> $contrl runtyp=energy ispher=1 $end                                            
 INPUT CARD> $contrl icut=9 itol=20 inttyp=rysquad qmttol=1.0d-05 nosym=1 $end              
 INPUT CARD> $scf    npunch=2 conv=1.0d-06 dirscf=.t.      $end                             
 INPUT CARD> $contrl scftyp=mcscf  mult=2 maxit=200 icharg=1 mplevl=2 $end                  
 INPUT CARD> $guess  guess=moread norb=29 purify=.t. $end                                   
 INPUT CARD> $basis  gbasis=ccd $end                                                        
 INPUT CARD> $mcscf  cistep=gmcci fullnr=.t. finci=mos                                      
 INPUT CARD>         acurcy=1.d-6 maxit=100 $end                                            
 INPUT CARD> $trans  dirtrf=.t. $end                                                        
 INPUT CARD> $mrmp   mrpt=gmcpt rdvecs=.f. $end                                             
 INPUT CARD> $gmcpt  nmofzc=0 nmodoc=1 nmoact=7 nelact=7 stsym(1)=A                         
 INPUT CARD>         reftyp=ormas nspace=1 mstart(1)=2 mine(1)=7 maxe(1)=7                  
 INPUT CARD>         kstate(1)=1,1,1                                                        
 INPUT CARD>         wstate(1)=1,1,1                                                        
 INPUT CARD>         iwgt=0 thrwgt=-1.0 krot=.f. kszdoe=.f. knospn=.f.                      
 INPUT CARD>         thrde=-1.0 edshft=0.02 $end                                            
 INPUT CARD> $data                                                                          
 INPUT CARD> NH3+ 3 states calculation at NH3 structure.                                    
 INPUT CARD> c1                                                                             
 INPUT CARD>N 7.0 0.03737350800000001 -0.04983122400000001 -0.1693803602                    
 INPUT CARD>H 1.0 -0.465105104 0.6310016458000001 0.5185367541000001                        
 INPUT CARD>H 1.0 -1.0765076279999999 -0.5223858918 0.1527649661                            
 INPUT CARD>H 1.0 1.022297792 0.58380594 0.0980740021                                       
 INPUT CARD>$end                                                                            
 INPUT CARD>--- OPTIMIZED RHF      MO-S --- GENERATED AT Mon Nov 14 16:47:08 2022           
 INPUT CARD>E=      -56.3825050291, E(NUC)=   11.8429239490                                 
 INPUT CARD> $VEC                                                                           
 INPUT CARD> 1  1-1.00134066E+00-2.25158504E-03 3.44925845E-03 0.00000000E+00 0.00000000E+00
 INPUT CARD> 1  2-2.13170927E-03 0.00000000E+00 0.00000000E+00 6.57129898E-04-6.87950443E-05
 INPUT CARD> 1  3-6.87950443E-05 1.37590089E-04 0.00000000E+00 0.00000000E+00 0.00000000E+00
 INPUT CARD> 1  4 3.25502815E-04-4.84772356E-04 3.62525460E-04-6.27912517E-04-3.45956485E-04
 INPUT CARD> 1  5 3.25502815E-04-4.84772356E-04 3.62525460E-04 6.27912517E-04-3.45956485E-04
 INPUT CARD> 1  6 3.25502815E-04-4.84772356E-04-7.25050921E-04 0.00000000E+00-3.45956485E-04
 INPUT CARD> 2  1 1.31286642E-02-4.05911371E-01-2.82090992E-01 0.00000000E+00 0.00000000E+00
 INPUT CARD> 2  2-7.71489043E-02 0.00000000E+00 0.00000000E+00 9.73717494E-03 6.62450916E-04
 INPUT CARD> 2  3 6.62450916E-04-1.32490183E-03 0.00000000E+00 0.00000000E+00 0.00000000E+00
 INPUT CARD> 2  4-1.96090317E-01-1.96656153E-02-1.74855877E-02 3.02859263E-02 8.68214399E-03
 INPUT CARD> 2  5-1.96090317E-01-1.96656153E-02-1.74855877E-02-3.02859263E-02 8.68214399E-03
 INPUT CARD> 2  6-1.96090317E-01-1.96656153E-02 3.49711754E-02 0.00000000E+00 8.68214399E-03
 INPUT CARD> 3  1 0.00000000E+00 0.00000000E+00 0.00000000E+00 4.48608762E-01 0.00000000E+00
 INPUT CARD> 3  2 0.00000000E+00 2.18692520E-01 0.00000000E+00 0.00000000E+00 1.30198027E-02
 INPUT CARD> 3  3-1.30198027E-02 0.00000000E+00 0.00000000E+00 2.71832968E-02 0.00000000E+00
 INPUT CARD> 3  4-1.85332726E-01-7.03958951E-02 8.47929477E-03 1.95242443E-02 8.32835058E-03
 INPUT CARD> 3  5-1.85332726E-01-7.03958951E-02 8.47929477E-03-1.95242443E-02 8.32835058E-03
 INPUT CARD> 3  6 3.70665453E-01 1.40791790E-01-2.53376884E-02 0.00000000E+00-1.66567012E-02
 INPUT CARD> 4  1 0.00000000E+00 0.00000000E+00 0.00000000E+00 0.00000000E+00 4.48608762E-01
 INPUT CARD> 4  2 0.00000000E+00 0.00000000E+00 2.18692520E-01 0.00000000E+00 0.00000000E+00
 INPUT CARD> 4  3 0.00000000E+00 0.00000000E+00-1.50339731E-02 0.00000000E+00 2.71832968E-02
 INPUT CARD> 4  4 3.21005698E-01 1.21929267E-01 1.95242443E-02-1.40653607E-02-1.44251263E-02
  100000000 WORDS OF MEMORY AVAILABLE

     BASIS OPTIONS
     -------------
     GBASIS=CCD          IGAUSS=       0      POLAR=NONE    
     NDFUNC=       0     NFFUNC=       0     DIFFSP=       F
     NPFUNC=       0      DIFFS=       F     BASNAM=        


     RUN TITLE
     ---------
  NH3+ 3 states calculation at NH3 structure.                                    

 THE POINT GROUP OF THE MOLECULE IS C1      
 THE ORDER OF THE PRINCIPAL AXIS IS     0

 ATOM      ATOMIC                      COORDINATES (BOHR)
           CHARGE         X                   Y                   Z
 N           7.0     0.0706256893       -0.0941673590       -0.3200824685
 H           1.0    -0.8789212021        1.1924202084        0.9798923798
 H           1.0    -2.0343044406       -0.9871661954        0.2886839265
 H           1.0     1.9318627047        1.1032332566        0.1853329905

          INTERNUCLEAR DISTANCES (ANGS.)
          ------------------------------

                1 N          2 H          3 H          4 H     

   1 N       0.0000000    1.0905265 *  1.2521249 *  1.2012925 *
   2 H       1.0905265 *  0.0000000    1.3556935 *  1.5464100 *
   3 H       1.2521249 *  1.3556935 *  0.0000000    2.3731068 *
   4 H       1.2012925 *  1.5464100 *  2.3731068 *  0.0000000  

  * ... LESS THAN  3.000


     ATOMIC BASIS SET
     ----------------
 THE CONTRACTED PRIMITIVE FUNCTIONS HAVE BEEN UNNORMALIZED
 THE CONTRACTED BASIS FUNCTIONS ARE NOW NORMALIZED TO UNITY

  SHELL TYPE  PRIMITIVE        EXPONENT          CONTRACTION COEFFICIENT(S)

 N         

      1   S       1          9046.0000000    0.000699617413
      1   S       2          1357.0000000    0.005386054630
      1   S       3           309.3000000    0.027391021189
      1   S       4            87.7300000    0.103150591982
      1   S       5            28.5600000    0.278570663317
      1   S       6            10.2100000    0.448294849454
      1   S       7             3.8380000    0.278085928395
      1   S       8             0.7466000    0.015431561233

      2   S       9          9046.0000000   -0.000304990096
      2   S      10          1357.0000000   -0.002408026379
      2   S      11           309.3000000   -0.011944448725
      2   S      12            87.7300000   -0.048925992909
      2   S      13            28.5600000   -0.134472724725
      2   S      14            10.2100000   -0.315112577700
      2   S      15             3.8380000   -0.242857832550
      2   S      16             0.7466000    1.094382206854

      3   S      17             0.2248000    1.000000000000

      4   P      18            13.5500000    0.058905676772
      4   P      19             2.9170000    0.320461106714
      4   P      20             0.7973000    0.753042061792

      5   P      21             0.2185000    1.000000000000

      6   D      22             0.8170000    1.000000000000

 H         

      7   S      23            13.0100000    0.033498726390
      7   S      24             1.9620000    0.234800801174
      7   S      25             0.4446000    0.813682957883

      8   S      26             0.1220000    1.000000000000

      9   P      27             0.7270000    1.000000000000

 H         

     10   S      28            13.0100000    0.033498726390
     10   S      29             1.9620000    0.234800801174
     10   S      30             0.4446000    0.813682957883

     11   S      31             0.1220000    1.000000000000

     12   P      32             0.7270000    1.000000000000

 H         

     13   S      33            13.0100000    0.033498726390
     13   S      34             1.9620000    0.234800801174
     13   S      35             0.4446000    0.813682957883

     14   S      36             0.1220000    1.000000000000

     15   P      37             0.7270000    1.000000000000

 TOTAL NUMBER OF BASIS SET SHELLS             =   15
 NUMBER OF CARTESIAN GAUSSIAN BASIS FUNCTIONS =   30
 NOTE: THIS RUN WILL RESTRICT THE MO VARIATION SPACE TO SPHERICAL HARMONICS.
 THE NUMBER OF ORBITALS KEPT IN THE VARIATIONAL SPACE WILL BE PRINTED LATER.
 NUMBER OF ELECTRONS                          =    9
 CHARGE OF MOLECULE                           =    1
 SPIN MULTIPLICITY                            =    2
 NUMBER OF OCCUPIED ORBITALS (ALPHA)          =    5
 NUMBER OF OCCUPIED ORBITALS (BETA )          =    4
 TOTAL NUMBER OF ATOMS                        =    4
 THE NUCLEAR REPULSION ENERGY IS       10.3941782720

     $CONTRL OPTIONS
     ---------------
 SCFTYP=MCSCF        RUNTYP=ENERGY       EXETYP=RUN     
 MPLEVL=       2     CITYP =NONE         CCTYP =NONE         VBTYP =NONE    
 DFTTYP=NONE         TDDFT =NONE    
 MULT  =       2     ICHARG=       1     NZVAR =       0     COORD =UNIQUE  
 PP    =NONE         RELWFN=NONE         LOCAL =NONE         NUMGRD=       F
 ISPHER=       1     NOSYM =       1     MAXIT =     200     UNITS =ANGS    
 PLTORB=       F     MOLPLT=       F     AIMPAC=       F     FRIEND=        
 NPRINT=       7     IREST =       0     GEOM  =INPUT   
 NORMF =       0     NORMP =       0     ITOL  =      20     ICUT  =       9
 INTTYP=RYSQUAD      GRDTYP=BEST         QMTTOL= 1.0E-05

     $SYSTEM OPTIONS
     ---------------
  REPLICATED MEMORY=   100000000 WORDS (ON EVERY NODE).
 DISTRIBUTED MEMDDI=        1000 MILLION WORDS IN AGGREGATE,
 MEMDDI DISTRIBUTED OVER   1 PROCESSORS IS  1000000000 WORDS/PROCESSOR.
 TOTAL MEMORY REQUESTED ON EACH PROCESSOR=  1100000000 WORDS.
 TIMLIM=      525600.00 MINUTES, OR     365.0 DAYS.
 PARALL= T  BALTYP=  DLB     KDIAG=    3  COREFL= F
 MXSEQ2=     300 MXSEQ3=     150  mem10=         0

          ----------------
          PROPERTIES INPUT
          ----------------

     MOMENTS            FIELD           POTENTIAL          DENSITY
 IEMOM =       1   IEFLD =       0   IEPOT =       0   IEDEN =       0
 WHERE =COMASS     WHERE =NUCLEI     WHERE =NUCLEI     WHERE =NUCLEI  
 OUTPUT=BOTH       OUTPUT=BOTH       OUTPUT=BOTH       OUTPUT=BOTH    
 IEMINT=       0   IEFINT=       0                     IEDINT=       0
                                                       MORB  =       0

     -------------------------------
     INTEGRAL TRANSFORMATION OPTIONS
     -------------------------------
     NWORD  =            0
     CUTOFF = 1.0E-09     MPTRAN =       0
     DIRTRF =       T     AOINTS =DUP     

          ----------------------
          MCSCF INPUT PARAMETERS
          ----------------------
 CONVERGER SELECTION: FOCAS = F  SOSCF = F  FULLNR = T  QUD = F  JACOBI = F
 SECULAR EQUATION METHOD CISTEP = GMCCI   
 --- GENERAL INPUT OPTIONS:
 MAXIT =     100  MICIT =       1  ACURCY= 1.000E-06
 DAMP  =   0.000  CANONC=       T  ENGTOL= 1.000E-10
 EKT   =       F  NPUNCH=       2  NWORD =         0
 REGENERATE CI AFTER CONVERGENCE = NONE    
 DIABATIZATION AFTER CONVERGENCE =        F
 --- INPUT FOR FULLNR CONVERGER:
 METHOD=DM2       FORS  =       F  DROPC =       T
 LINSER=       F  FCORE =       F  NORB  =      30

          ----------------------
          INTEGRAL INPUT OPTIONS
          ----------------------
 NOPK  =       1 NORDER=       0 SCHWRZ=       T

 ------------------------------------------
 MULTIREFERENCE PERTURBATION THEORY CONTROL
 ------------------------------------------
 MRPT=GMCPT    READ CONVERGED MCSCF VECTORS= F


     ------------------------------------------
     THE POINT GROUP IS C1 , NAXIS= 1, ORDER= 1
     ------------------------------------------

 -- VARIATIONAL SPACE WILL BE RESTRICTED TO PURE SPHERICAL HARMONICS ONLY --
 AFTER EXCLUDING CONTAMINANT COMBINATIONS FROM THE CARTESIAN GAUSSIAN BASIS
 SET, THE NUMBER OF SPHERICAL HARMONICS KEPT IN THE VARIATION SPACE IS   29

     DIMENSIONS OF THE SYMMETRY SUBSPACES ARE
 A   =   29

 ..... DONE SETTING UP THE RUN .....
 CPU     0: STEP CPU TIME=     0.03 TOTAL CPU TIME=          0.0 (      0.0 MIN)
 TOTAL WALL CLOCK TIME=          0.0 SECONDS, CPU UTILIZATION IS    75.00%

          ********************
          1 ELECTRON INTEGRALS
          ********************
 TIME TO DO   DIPOLE INTEGRALS=      0.00
 ...... END OF ONE-ELECTRON INTEGRALS ......
 CPU     0: STEP CPU TIME=     0.00 TOTAL CPU TIME=          0.0 (      0.0 MIN)
 TOTAL WALL CLOCK TIME=          0.1 SECONDS, CPU UTILIZATION IS    60.00%

          -------------
          GUESS OPTIONS
          -------------
          GUESS =MOREAD            NORB  =      29          NORDER=       0
          MIX   =       F          PRTMO =       F          PUNMO =       F
          TOLZ  = 1.0E-08          TOLE  = 1.0E-05
          SYMDEN=       F          PURIFY=       T

 INITIAL GUESS ORBITALS GENERATED BY MOREAD   ROUTINE.

 STATISTICS FOR GENERATION OF SYMMETRY ORBITAL -Q- MATRIX
 NUMBER OF CARTESIAN ATOMIC ORBITALS=         30
 NUMBER OF SPHERICAL CONTAMINANTS DROPPED=     1
 NUMBER OF LINEARLY DEPENDENT MOS DROPPED=     0
 TOTAL NUMBER OF MOS IN VARIATION SPACE=      29
 ORBITAL PURIFICATION WILL OCCUR

 SYMMETRIES FOR INITIAL GUESS ORBITALS FOLLOW.   BOTH SET(S).
     5 ORBITALS ARE OCCUPIED (    1 CORE ORBITALS).
     1=A        2=A        3=A        4=A        5=A        6=A        7=A   
     8=A        9=A       10=A       11=A       12=A       13=A       14=A   
    15=A       16=A       17=A       18=A       19=A       20=A       21=A   
    22=A       23=A       24=A       25=A       26=A       27=A       28=A   
    29=A   
 ...... END OF INITIAL ORBITAL SELECTION ......
 CPU     0: STEP CPU TIME=     0.01 TOTAL CPU TIME=          0.0 (      0.0 MIN)
 TOTAL WALL CLOCK TIME=          0.1 SECONDS, CPU UTILIZATION IS    80.00%

                    ----------------------
                    AO INTEGRAL TECHNOLOGY
                    ----------------------
     S,P,L SHELL ROTATED AXIS INTEGRALS, REPROGRAMMED BY
        KAZUYA ISHIMURA (IMS) AND JOSE SIERRA (SYNSTAR).
     S,P,D,L SHELL ROTATED AXIS INTEGRALS PROGRAMMED BY
        KAZUYA ISHIMURA (INSTITUTE FOR MOLECULAR SCIENCE).
     S,P,D,F,G SHELL TO TOTAL QUARTET ANGULAR MOMENTUM SUM 5,
        ERIC PROGRAM BY GRAHAM FLETCHER (ELORET AND NASA ADVANCED
        SUPERCOMPUTING DIVISION, AMES RESEARCH CENTER).
     S,P,D,F,G,L SHELL GENERAL RYS QUADRATURE PROGRAMMED BY
        MICHEL DUPUIS (PACIFIC NORTHWEST NATIONAL LABORATORY).

          --------------------
          2 ELECTRON INTEGRALS
          --------------------

 DIRECT SCF METHOD SKIPS INTEGRAL STORAGE ON DISK.
 DIRECT TRANSFORMATION SKIPS AO INTEGRAL STORAGE ON DISK.
  ...... END OF TWO-ELECTRON INTEGRALS .....
 STEP CPU TIME =     0.02 TOTAL CPU TIME =          0.1 (      0.0 MIN)
 TOTAL WALL CLOCK TIME=          0.1 SECONDS, CPU UTILIZATION IS    75.00%
 DDI: Creating Array [0] - 900 x 36 = 32400 words.
 DDI: Creating Array [1] - 21 x 288 = 6048 words.
 DDI: Creating Array [2] - 36 x 36 = 1296 words.
 DDI: Creating Array [3] - 465 x 36 = 16740 words.

          -----------------
          MCSCF CALCULATION
          -----------------

 ----- NUCLEAR ENERGY ----- =        10.3941782720

     -------------------------------------------------
     GMC-PT/GMC-QDPT or general MCSCF input parameters
     -------------------------------------------------
 # of frozen core orbs. =         0 ->         0
 # of doubly occ. orbs. =         1
 # of active      orbs. =         7
 # of virtual     orbs. =        21
 # of active electrons  =         7
 # of states in CI      =         3
 Highest state in CI    =         3
 kstate =  1 1 1
 avecoe =  0.333 0.333 0.333
 State symmetry           = A           
 Assigned symmetry number = 1

 <<<Act. MO sym.: 1111111

 <<<Division of 1-ext.:  0
 <<<Division of 2-ext.:  0

 *** Reference space

 Reference type: ORMAS (= Occupation restricted multiple active space)
 # of orbitals          =  7
 # of minimum electrons =  7
 # of maximum electrons =  7
 State symmetry    =    1 (input)
 2*Sz              =    1 (input)
 Spin multiplicity =    2 (input)
 Dimension of reference space =      1225  (from      3432 walks)

 Dimension of reference space =      1225  (from      1225 walks)

 <<<Ionized spaces for Ref-CI:
      0:         1225 /   -1-0:         1960 /  0-1-0:         2891

 EVALUATING EXCHANGE INTEGRALS FOR DIRECT INTEGRAL TRANSFORMATION
 SCHWARZ INEQUALITY OVERHEAD:       465 INTEGRALS, T=        0.01

     --------------------------------------------
     PARTIAL TWO ELECTRON INTEGRAL TRANSFORMATION
     --------------------------------------------

 NUMBER OF CORE MOLECULAR ORBITALS     =    1
 NUMBER OF OCCUPIED MOLECULAR ORBITALS =    8
 TOTAL NUMBER OF MOLECULAR ORBITALS    =   29
 TOTAL NUMBER OF ATOMIC ORBITALS       =   30
 THRESHOLD FOR KEEPING TRANSFORMED 2E- INTEGRALS = 1.000E-09

 -------------------------------     ------------------------------
 DISTRIBUTED DATA TRANSFORMATION     PROGRAM WRITTEN BY G. FLETCHER
 -------------------------------     ------------------------------

 THE DISTRIBUTED MEMORY REQUIRED FOR THIS STEP IS MEMDDI=         1 MWORDS
 CREATING DISTRIBUTED STORAGE FOR [VIR OCC|VIR OCC] INTEGRALS
 CREATING DISTRIBUTED STORAGE FOR [VIR OCC|OCC OCC] INTEGRALS
 CREATING DISTRIBUTED STORAGE FOR [OCC OCC|OCC OCC] INTEGRALS
 CREATING DISTRIBUTED STORAGE FOR [VIR VIR|OCC OCC] INTEGRALS
 FOR    1 PROCESSORS, THE REPLICATED MEMORY NEEDED IS       73700 WORDS.
 SCHWARZ INEQUALITY OVERHEAD:       465 INTEGRALS, T=        0.00

      DIRECT 4-INDEX TRANSFORMATION 
      SCHWARZ INEQUALITY TEST SKIPPED          0 INTEGRAL BLOCKS
 ----- FROZEN CORE ENERGY =       -47.4285995406
 ... END OF INTEGRAL TRANSFORMATION ...
 CPU     0: STEP CPU TIME=     0.22 TOTAL CPU TIME=          0.3 (      0.0 MIN)
 TOTAL WALL CLOCK TIME=          0.3 SECONDS, CPU UTILIZATION IS    96.55%

     --------------------------------     -----------------------------
     MCHF NEWTON-RAPHSON OPTIMIZATION     CODE WRITTEN BY MICHEL DUPUIS
     --------------------------------     -----------------------------
     PARALLEL VERSION WRITTEN BY G. FLETCHER (ELORET)
     NASA ADVANCED SUPERCOMPUTING DIVISION, AMES RESEARCH CENTER

 NUMBER OF INDEPENDENT ORBITAL ROTATION PARAMETERS =   175
 ..... DONE SOLVING NEWTON-RAPHSON EQUATIONS .....
 CPU     0: STEP CPU TIME=     1.04 TOTAL CPU TIME=          1.3 (      0.0 MIN)
 TOTAL WALL CLOCK TIME=          1.3 SECONDS, CPU UTILIZATION IS    99.25%
 ..... DONE WITH NTN-RPH ORBITAL ROTATIONS ..... 
 CPU     0: STEP CPU TIME=     0.00 TOTAL CPU TIME=          1.3 (      0.0 MIN)
 TOTAL WALL CLOCK TIME=          1.3 SECONDS, CPU UTILIZATION IS    99.25%
 MAXIMUM MEMORY USED BY NTN-RPH CODE WAS     57645 WORDS.

 ITER     TOTAL ENERGY      DEL(E)  LAGRANGIAN ASYMMETRY   SQCDF  MICIT   DAMP
   1      -55.528614195 -0.528614195  0.138811   10    4 8.582E-02  1   0.0000
   2      -55.618755939 -0.090141744  0.022447   12    5 4.489E-01  1   0.0000
   3      -55.657191927 -0.038435988  0.015461   11    6 2.171E-01  1   0.0121
   4      -55.675026654 -0.017834727  0.005541   14    8 4.059E-02  1   0.0068
   5      -55.677595054 -0.002568399  0.001785   14    5 1.899E-03  1   0.0000
   6      -55.677780304 -0.000185250  0.000938   14    5 3.104E-04  1   0.0000
   7      -55.677816040 -0.000035737  0.000470   14    5 7.545E-05  1   0.0000
   8      -55.677824616 -0.000008575  0.000234   14    5 1.913E-05  1   0.0000
   9      -55.677826746 -0.000002131  0.000116   14    5 4.937E-06  1   0.0000
  10      -55.677827284 -0.000000538  0.000057   14    5 1.295E-06  1   0.0000
  11      -55.677827422 -0.000000138  0.000028   14    5 3.456E-07  1   0.0000
  12      -55.677827458 -0.000000036  0.000013   14    5 9.397E-08  1   0.0000
  13      -55.677827467 -0.000000009  0.000006   14    5 2.618E-08  1   0.0000
  14      -55.677827470 -0.000000003  0.000003   14    5 7.471E-09  1   0.0000
  15      -55.677827470 -0.000000001  0.000002   22    5 2.199E-09  1   0.0000
  16      -55.677827470 -0.000000000  0.000001   22    5 6.633E-10  1   0.0000

          --------------------
          LAGRANGIAN CONVERGED
          --------------------

 FINAL MCSCF ENERGY IS      -55.6778274704 AFTER  16 ITERATIONS

 -MCCI- BASED ON OPTIMIZED ORBITALS
 ----------------------------------

 PLEASE NOTE: IF THE ACTIVE ORBITALS ARE CANONICALIZED BELOW,
 THE FOLLOWING CI EXPANSION COEFFICIENTS AND THE DENSITY DO NOT
 CORRESPOND TO THE PRINTED ORBITALS.  THE PRINTED EXPANSIONS MATCH
 THE ORBITALS USED DURING THE LAST ITERATION.  IF YOU WISH TO SEE
 CI EXPANSIONS BASED ON THE CANONICAL (OR NATURAL) ORBITALS, YOU
 MUST RUN A CI CALCULATION WITH THAT ORBITAL CHOICE READ IN $VEC.

 Averaged energy =     -55.677827470

 State #    1  Energy =     -55.816738780  S =  0.500

      Det      Coef    Occupancy (Ignoring core)
      ---      ----    --------- --------- -----
        1    0.791612  11110001110000
        2    0.077645  11101001110000
        3    0.089890  11011001110000
        5   -0.085441  01111001110000
        8   -0.117834  10110101110000
       16    0.082967  11100011110000
       17    0.175391  11010011110000
       36    0.408011  11110001101000
       38    0.051161  11011001101000
       51    0.081864  11100011101000
       52    0.081394  11010011101000
       71    0.186835  11110001011000
      141   -0.052420  11110001100100
      211    0.056673  11110000110100
      386    0.084141  11110001010010
      701   -0.093527  11110001100001
      717    0.066318  11010011100001

 State #    2  Energy =     -55.671683631  S =  0.500

      Det      Coef    Occupancy (Ignoring core)
      ---      ----    --------- --------- -----
        1   -0.432739  11110001110000
        8    0.065550  10110101110000
       17   -0.079610  11010011110000
       36    0.762122  11110001101000
       37    0.051764  11101001101000
       38    0.119038  11011001101000
       39    0.071405  10111001101000
       40   -0.074180  01111001101000
       41   -0.055332  11100101101000
       43   -0.088443  10110101101000
       51    0.081025  11100011101000
       52    0.148894  11010011101000
       71    0.208289  11110001011000
      106   -0.063733  11110000111000
      122   -0.055169  11010010111000
      141    0.088216  11110001100100
      281    0.054538  11110000101100
      351   -0.062002  11110001100010
      386   -0.059409  11110001010010
      456    0.062539  11110001001010
      463    0.052691  10110101001010
      701    0.160634  11110001100001

 State #    3  Energy =     -55.545060000  S =  0.500

      Det      Coef    Occupancy (Ignoring core)
      ---      ----    --------- --------- -----
        1    0.064167  11110001110000
       36    0.283352  11110001101000
       71   -0.870272  11110001011000
       73   -0.090033  11011001011000
       75    0.055253  01111001011000
       77    0.055433  11010101011000
       78    0.057147  10110101011000
       86   -0.082726  11100011011000
       87   -0.128146  11010011011000
      176   -0.058203  11110001010100
      246   -0.119720  11110001001100
      316   -0.090491  11110000011100
      456    0.068864  11110001001010
      736   -0.095769  11110001010001
      806   -0.158543  11110001001001
      822    0.067137  11010011001001

 DENSITY MATRIX OVER ACTIVE MO-S

             1           2           3           4           5

    1    1.9650135
    2   -0.0249069   1.6238152
    3    0.0511429   0.0208544   1.5786180
    4   -0.0158469  -0.0155983   0.0372412   1.6252981
    5    0.1311547   0.0811660  -0.1625564   0.0739278   0.0683150
    6   -0.0111738  -0.1379142   0.0622265  -0.0819190  -0.0213617
    7    0.0354486   0.0478524  -0.2406426   0.1655477   0.0476653

             6           7

    6    0.0453473
    7   -0.0278828   0.0935928

 FORMING THE "STANDARD FOCK OPERATOR" IN DIRECT AO INTEGRAL MODE...
 ONLY THE    1 CORE AND   21 VIRTUAL ORBITALS WILL BE CANONICALIZED

          ----------------------
          MCSCF NATURAL ORBITALS
          ----------------------

                      1          2          3          4          5
                  -15.9640     1.9792     1.6514     1.6411     1.6349
                     A          A          A          A          A   
    1  N  1  S    1.000961   0.009372  -0.006174   0.002568  -0.004172
    2  N  1  S   -0.002035   0.429636  -0.148432   0.084160  -0.117071
    3  N  1  S   -0.006584   0.355439  -0.244687   0.120767  -0.181692
    4  N  1  X   -0.000082  -0.042474   0.109283   0.458441  -0.051523
    5  N  1  Y    0.000224   0.069832  -0.100305   0.002949   0.526266
    6  N  1  Z    0.000947   0.077302   0.578500  -0.042581   0.000199
    7  N  1  X    0.000107  -0.012146   0.091224   0.223530  -0.041863
    8  N  1  Y   -0.000182   0.015787  -0.104419  -0.012837   0.308382
    9  N  1  Z   -0.000580   0.015837   0.393429  -0.001489  -0.048059
   10  N  1 XX   -0.000028   0.003204  -0.010478   0.001150  -0.010365
   11  N  1 YY   -0.000006  -0.001631  -0.011405   0.000791   0.010242
   12  N  1 ZZ    0.000035  -0.001573   0.021883  -0.001942   0.000123
   13  N  1 XY   -0.000082   0.002777   0.001596   0.011016  -0.015038
   14  N  1 XZ   -0.000075  -0.003080  -0.001647   0.018285  -0.002389
   15  N  1 YZ    0.000132   0.003411   0.005797  -0.001365   0.020554
   16  H  2  S   -0.001651   0.226535   0.156987  -0.192509   0.292200
   17  H  2  S    0.000353   0.010720   0.045138  -0.053188   0.113252
   18  H  2  X   -0.000460   0.017317   0.014098   0.014842   0.017398
   19  H  2  Y    0.000657  -0.025252  -0.021643   0.020780  -0.001235
   20  H  2  Z    0.000630  -0.022803   0.014152   0.012941  -0.023680
   21  H  3  S   -0.000938   0.140039   0.053138  -0.244591  -0.219806
   22  H  3  S    0.000339   0.002427   0.023466  -0.036084  -0.092886
   23  H  3  X   -0.000418   0.022021   0.006871  -0.024828  -0.027443
   24  H  3  Y   -0.000188   0.012594  -0.000149  -0.024697   0.007443
   25  H  3  Z    0.000170  -0.002956   0.021831   0.002117   0.004055
   26  H  4  S   -0.001040   0.142092   0.097556   0.319660   0.069387
   27  H  4  S    0.000463   0.002951   0.033705   0.073333  -0.015038
   28  H  4  X    0.000471  -0.024898  -0.007857  -0.028325  -0.022779
   29  H  4  Y    0.000282  -0.011534  -0.008820  -0.025454   0.010520
   30  H  4  Z    0.000159  -0.001907   0.020745  -0.006994  -0.000057

                      6          7          8
                    0.0424     0.0267     0.0242
                     A          A          A   
    1  N  1  S   -0.141635  -0.095303   0.056222
    2  N  1  S   -0.491782  -0.378846   0.194330
    3  N  1  S    0.045737  -0.225672   0.052015
    4  N  1  X   -0.168954   0.473851   0.685516
    5  N  1  Y    0.441787  -0.315476   0.509132
    6  N  1  Z   -0.165672  -0.589213   0.195336
    7  N  1  X    0.044162   0.090738   0.045311
    8  N  1  Y   -0.107730  -0.056719   0.053548
    9  N  1  Z    0.100328   0.030154  -0.044256
   10  N  1 XX    0.052925   0.016503   0.036630
   11  N  1 YY   -0.041897  -0.011489  -0.043931
   12  N  1 ZZ   -0.011029  -0.005015   0.007301
   13  N  1 XY    0.078410  -0.014151  -0.037078
   14  N  1 XZ   -0.011745  -0.041780  -0.028989
   15  N  1 YZ    0.009187   0.037377  -0.041951
   16  H  2  S   -0.310120   0.724159  -0.175962
   17  H  2  S   -0.172080   0.188722  -0.058320
   18  H  2  X   -0.004319  -0.001607  -0.054450
   19  H  2  Y   -0.012449  -0.044697  -0.017764
   20  H  2  Z    0.026035  -0.004907   0.000826
   21  H  3  S    0.552267   0.262358   0.382218
   22  H  3  S    0.183643   0.030629   0.141842
   23  H  3  X    0.063358   0.017403   0.024516
   24  H  3  Y   -0.000586   0.032234   0.024055
   25  H  3  Z    0.004290   0.033285   0.014605
   26  H  4  S    0.470099   0.026390  -0.576664
   27  H  4  S    0.129707  -0.033426  -0.160407
   28  H  4  X   -0.028086  -0.010554   0.054579
   29  H  4  Y   -0.047652  -0.000343   0.016604
   30  H  4  Z    0.000293   0.012708  -0.033436

          ------------------------
          MCSCF OPTIMIZED ORBITALS
          ------------------------

                      1          2          3          4          5
                  -15.9640     0.0000     0.0000     0.0000     0.0000
                     A          A          A          A          A   
    1  N  1  S    1.000961  -0.003633  -0.011826   0.021754  -0.020256
    2  N  1  S   -0.002035   0.389481   0.000191   0.012168  -0.210998
    3  N  1  S   -0.006584   0.362921   0.079042  -0.157021  -0.250278
    4  N  1  X   -0.000082  -0.015961   0.393360  -0.036703   0.023652
    5  N  1  Y    0.000224   0.032209   0.016924   0.422626  -0.020924
    6  N  1  Z    0.000947   0.050262  -0.012770   0.027379   0.575661
    7  N  1  X    0.000107   0.009232   0.226372  -0.054285   0.069492
    8  N  1  Y   -0.000182  -0.022857  -0.021891   0.322094  -0.104577
    9  N  1  Z   -0.000580   0.035161   0.039185  -0.064623   0.397810
   10  N  1 XX   -0.000028   0.007433   0.001101  -0.020420  -0.005042
   11  N  1 YY   -0.000006  -0.005200   0.000187   0.018565  -0.015609
   12  N  1 ZZ    0.000035  -0.002233  -0.001287   0.001855   0.020651
   13  N  1 XY   -0.000082   0.009481   0.019353  -0.029153   0.010176
   14  N  1 XZ   -0.000075  -0.003992   0.019862  -0.000677  -0.003174
   15  N  1 YZ    0.000132   0.004204   0.002594   0.019880   0.006095
   16  H  2  S   -0.001651   0.203850  -0.204293   0.381802   0.112085
   17  H  2  S    0.000353  -0.003669  -0.058484   0.148849   0.024490
   18  H  2  X   -0.000460   0.017006   0.019038   0.020166   0.012265
   19  H  2  Y    0.000657  -0.026647   0.021040  -0.001777  -0.022698
   20  H  2  Z    0.000630  -0.018289   0.016339  -0.030653   0.015834
   21  H  3  S   -0.000938   0.187442  -0.239870  -0.306788   0.123814
   22  H  3  S    0.000339   0.020095  -0.032984  -0.127368   0.044958
   23  H  3  X   -0.000418   0.027533  -0.023072  -0.036658   0.015003
   24  H  3  Y   -0.000188   0.011592  -0.027095   0.008979   0.000857
   25  H  3  Z    0.000170  -0.001428   0.002914   0.002900   0.020728
   26  H  4  S   -0.001040   0.189799   0.395857  -0.003614   0.121869
   27  H  4  S    0.000463   0.017227   0.096501  -0.038121   0.043022
   28  H  4  X    0.000471  -0.027091  -0.034017  -0.019876  -0.008298
   29  H  4  Y    0.000282  -0.016929  -0.029849   0.018456  -0.011566
   30  H  4  Z    0.000159  -0.000900  -0.003033   0.000535   0.020765

                      6          7          8          9         10
                    0.0000     0.0000     0.0000     0.1727     0.2198
                     A          A          A          A          A   
    1  N  1  S    0.171581   0.033710  -0.029005  -0.127717   0.019285
    2  N  1  S    0.661810   0.094385  -0.085329  -0.203289   0.024030
    3  N  1  S    0.184412  -0.080036   0.154477   1.188227  -0.201291
    4  N  1  X   -0.040582   0.889246  -0.016855   0.039825   0.172560
    5  N  1  Y    0.029789   0.123534   0.805789  -0.044910   0.100942
    6  N  1  Z    0.618746  -0.062389   0.183472  -0.204708   0.036601
    7  N  1  X   -0.061366   0.097313  -0.009111  -0.177419  -0.730194
    8  N  1  Y    0.081241   0.023189   0.035866   0.181421  -0.387094
    9  N  1  Z   -0.066256  -0.020780  -0.016125   0.425339  -0.044718
   10  N  1 XX   -0.034565   0.025004   0.048220   0.049580   0.006541
   11  N  1 YY    0.021284  -0.032395  -0.044019  -0.017690  -0.019977
   12  N  1 ZZ    0.013281   0.007391  -0.004201  -0.031891   0.013436
   13  N  1 XY   -0.044239  -0.055528   0.040281   0.029423  -0.040709
   14  N  1 XZ    0.031709  -0.040317  -0.004930  -0.053933  -0.061185
   15  N  1 YZ   -0.045437  -0.018551  -0.029077   0.063392  -0.032466
   16  H  2  S   -0.408718   0.278170  -0.603235   0.289872   0.075345
   17  H  2  S   -0.060638   0.083663  -0.222643  -0.859751  -0.198319
   18  H  2  X   -0.009094  -0.043044  -0.029383  -0.083863  -0.027054
   19  H  2  Y    0.034700  -0.033411   0.004031   0.041061  -0.016948
   20  H  2  Z   -0.009282  -0.005423   0.015612   0.083287   0.003303
   21  H  3  S   -0.413386   0.298877   0.433773   0.471672   0.394829
   22  H  3  S   -0.089642   0.087999   0.172491  -0.886965  -1.123723
   23  H  3  X   -0.042090   0.012440   0.045102  -0.042549  -0.061918
   24  H  3  Y   -0.018833   0.033713  -0.000915   0.006741  -0.001323
   25  H  3  Z   -0.022770   0.028955  -0.006353   0.034890   0.048725
   26  H  4  S   -0.427340  -0.548065   0.018684   0.347389  -0.566092
   27  H  4  S   -0.086965  -0.172170   0.017361  -0.630099   1.674554
   28  H  4  X    0.037671   0.044614   0.010832   0.052594  -0.063973
   29  H  4  Y    0.029821   0.022322  -0.021826   0.014255  -0.064326
   30  H  4  Z   -0.017193  -0.020478  -0.024618  -0.000206  -0.054033

                     11         12         13         14         15
                    0.2614     0.5353     0.6340     0.7108     0.8651
                     A          A          A          A          A   
    1  N  1  S    0.023979   0.093775   0.051698   0.139151  -0.106661
    2  N  1  S    0.061130   0.185724   0.239545   0.367460  -0.240853
    3  N  1  S   -0.131659  -0.243214   0.275638  -0.289004   0.385808
    4  N  1  X    0.014960   0.338355   0.180664  -0.297161  -0.323151
    5  N  1  Y    0.039140  -0.623876  -0.062791  -0.209916  -0.225425
    6  N  1  Z    0.017462   0.385735  -0.583463  -0.260130   0.073900
    7  N  1  X    0.036937  -0.548524  -0.802050   0.932133   1.057208
    8  N  1  Y   -0.367574   0.917400   0.436577   0.811561   0.627172
    9  N  1  Z   -0.183375  -0.280111   1.112176   0.425213  -0.124303
   10  N  1 XX    0.046100   0.015652  -0.067132   0.056801  -0.147596
   11  N  1 YY   -0.021272   0.007981   0.040531  -0.072809   0.121953
   12  N  1 ZZ   -0.024827  -0.023633   0.026602   0.016008   0.025643
   13  N  1 XY    0.075633  -0.000859   0.002567  -0.049181   0.110878
   14  N  1 XZ    0.035321  -0.000153   0.044999  -0.068801  -0.113300
   15  N  1 YZ   -0.067183   0.004287  -0.009759  -0.094284  -0.040463
   16  H  2  S   -0.677186  -0.218922  -0.678979  -0.308787   0.043551
   17  H  2  S    2.236885  -0.445264  -0.545833  -0.090749  -0.048018
   18  H  2  X    0.040035  -0.058136   0.108282  -0.305505   0.266450
   19  H  2  Y   -0.073150   0.060178   0.172770  -0.224961   0.078614
   20  H  2  Z   -0.064020   0.023479   0.085764  -0.013179   0.093857
   21  H  3  S    0.466907   0.213381  -0.339801   0.179650   0.567129
   22  H  3  S   -1.485021   0.246854   0.204869   0.541047   0.168923
   23  H  3  X   -0.007374  -0.047364  -0.066696   0.105980   0.187580
   24  H  3  Y   -0.030505   0.035401  -0.170687   0.264164  -0.308000
   25  H  3  Z   -0.012042  -0.056251  -0.019904   0.200676   0.154373
   26  H  4  S    0.288930   0.231532  -0.222335  -0.451877  -0.559127
   27  H  4  S   -0.862039   0.224940   0.484308  -0.120093  -0.360756
   28  H  4  X   -0.013511  -0.003420  -0.118232   0.257639  -0.109614
   29  H  4  Y   -0.005363   0.036569   0.054414  -0.054440   0.332937
   30  H  4  Z   -0.003377  -0.037299   0.116336  -0.159288  -0.108827

                     16         17         18         19         20
                    1.0283     1.0396     1.0917     1.2479     1.3195
                     A          A          A          A          A   
    1  N  1  S   -0.096901  -0.696811  -0.199914  -0.029706  -0.190665
    2  N  1  S   -0.206070  -1.486594  -0.428019  -0.064671  -0.423383
    3  N  1  S    0.411781   2.708292   0.828175   0.023056   0.613955
    4  N  1  X   -0.322989   0.072001   0.121389   0.027416  -0.029980
    5  N  1  Y   -0.163368  -0.094457   0.081265   0.020510   0.024610
    6  N  1  Z   -0.020113   0.105113  -0.005292  -0.021406  -0.108670
    7  N  1  X    0.989415  -0.361909  -0.399368   0.198539   0.097591
    8  N  1  Y    0.486135   0.654318  -0.094999  -0.425280   0.006316
    9  N  1  Z    0.221556   0.340822   0.507384  -0.106106   0.486140
   10  N  1 XX    0.125107  -0.057601  -0.002211  -0.071320   0.050862
   11  N  1 YY   -0.001293  -0.098123   0.224975   0.148936  -0.001152
   12  N  1 ZZ   -0.123814   0.155725  -0.222764  -0.077615  -0.049710
   13  N  1 XY   -0.129501  -0.067690  -0.064209  -0.082835   0.045661
   14  N  1 XZ    0.129241   0.076119  -0.049115  -0.014737  -0.003648
   15  N  1 YZ    0.032051  -0.113566  -0.163879   0.058673  -0.009441
   16  H  2  S   -0.032394  -0.636811  -0.202008  -0.005896  -0.193988
   17  H  2  S   -0.045620  -0.495264  -0.143899   0.132003  -0.172040
   18  H  2  X    0.015053  -0.120260  -0.353694  -0.024205   0.016452
   19  H  2  Y    0.321207  -0.035109   0.393242  -0.061107  -0.093398
   20  H  2  Z   -0.290012   0.225385  -0.398129  -0.415154   0.227550
   21  H  3  S    0.514333  -0.373238  -0.328198   0.096145  -0.183567
   22  H  3  S    0.108196  -0.188894  -0.122897  -0.119367   0.092253
   23  H  3  X   -0.244928  -0.090539   0.124603  -0.282026  -0.141046
   24  H  3  Y    0.062400   0.031906  -0.217847   0.414768   0.405950
   25  H  3  Z   -0.410378   0.190451   0.051676   0.308880  -0.599901
   26  H  4  S   -0.558671  -0.357980   0.073746   0.116917  -0.243152
   27  H  4  S   -0.283756  -0.288752  -0.024848  -0.087831   0.014468
   28  H  4  X    0.095612   0.157795   0.139921  -0.269500  -0.237542
   29  H  4  Y   -0.217128  -0.057531   0.097485   0.574227   0.323987
   30  H  4  Z    0.256219   0.203599  -0.420199   0.290500  -0.515985

                     21         22         23         24         25
                    1.5147     1.6873     1.8169     1.9490     2.1047
                     A          A          A          A          A   
    1  N  1  S   -0.015384   0.042233  -0.159893   0.138246  -0.015954
    2  N  1  S   -0.139451   0.114608  -0.381097   0.313825  -0.039114
    3  N  1  S   -0.610434   0.080505   0.034309  -0.086206   0.002199
    4  N  1  X    0.046956   0.156345   0.368839   0.077496   0.004976
    5  N  1  Y   -0.138832   0.137703  -0.158528   0.285077  -0.023766
    6  N  1  Z   -0.061896   0.026017  -0.231157   0.158999  -0.006794
    7  N  1  X    0.258575   0.861570  -0.120960   0.136641  -0.049457
    8  N  1  Y    0.198177   0.416511   0.082657  -0.071415   0.173741
    9  N  1  Z   -0.191981  -0.012331   0.084737  -0.103294  -0.161909
   10  N  1 XX    0.123198  -0.002610   0.073151  -0.052316  -0.355180
   11  N  1 YY   -0.003125  -0.058466  -0.024905   0.049677   0.965553
   12  N  1 ZZ   -0.120072   0.061075  -0.048247   0.002639  -0.610372
   13  N  1 XY    0.125358  -0.047852  -0.090237   0.126756   0.078845
   14  N  1 XZ   -0.057384  -0.146011  -0.206254  -0.051964  -0.161315
   15  N  1 YZ    0.071680  -0.139067   0.139325  -0.224987  -0.165746
   16  H  2  S    0.092315   0.062247  -0.192284   0.049845  -0.006563
   17  H  2  S   -0.234796   0.073070   0.413230  -0.355632   0.028295
   18  H  2  X   -0.089580  -0.361074   0.787522   0.301873  -0.005946
   19  H  2  Y   -0.008983  -0.200367  -0.287369   0.800811  -0.440372
   20  H  2  Z   -0.196161   0.031225  -0.473024   0.359185   0.326505
   21  H  3  S   -0.031837   0.228744  -0.092291   0.134268   0.015440
   22  H  3  S    0.530966   0.275526   0.050857   0.365429  -0.040711
   23  H  3  X    0.746074   0.401895   0.295168   0.291831  -0.134341
   24  H  3  Y    0.240437  -0.218206   0.133906   0.724958   0.078168
   25  H  3  Z   -0.021027  -0.587659  -0.115678   0.134734  -0.095796
   26  H  4  S   -0.218509  -0.233125   0.028018  -0.005053  -0.003125
   27  H  4  S    0.319604  -0.474298  -0.281807  -0.095376   0.021065
   28  H  4  X   -0.609601   0.384482   0.485096   0.373310   0.097609
   29  H  4  Y   -0.260795   0.563390  -0.054953   0.127084  -0.373942
   30  H  4  Z    0.270977   0.545981  -0.114401   0.184961   0.235879

                     26         27         28         29
                    2.1195     2.3891     2.6441     3.0303
                     A          A          A          A   
    1  N  1  S    0.037662  -0.023578  -0.276407  -0.189602
    2  N  1  S    0.077389  -0.032420  -0.386864  -0.307948
    3  N  1  S   -0.072804   0.264697   2.391080   0.846619
    4  N  1  X   -0.002888   0.152367  -0.157400   0.170458
    5  N  1  Y    0.047997   0.092517   0.239610  -0.127559
    6  N  1  Z    0.049065   0.012326   0.278994  -0.081712
    7  N  1  X    0.000604   1.001068  -0.573919   0.270537
    8  N  1  Y    0.079856   0.671432   0.721393  -0.113828
    9  N  1  Z   -0.223613   0.116652   0.835765  -0.042816
   10  N  1 XX    0.652101  -0.332587   0.329949   0.859858
   11  N  1 YY   -0.011149   0.321536  -0.029052  -0.258572
   12  N  1 ZZ   -0.640952   0.011051  -0.300897  -0.601285
   13  N  1 XY   -0.620364   0.226696   0.044587   1.137212
   14  N  1 XZ    0.328115   0.829864  -0.707082   0.259085
   15  N  1 YZ   -0.038458   0.648341   0.931241  -0.318381
   16  H  2  S    0.030391  -0.113828  -1.406811   0.628669
   17  H  2  S   -0.061334  -0.049848  -0.568673   0.166656
   18  H  2  X    0.267762  -0.326930  -0.520758   0.274704
   19  H  2  Y   -0.103011  -0.134522   0.651713  -0.465105
   20  H  2  Z    0.481675   0.003407   0.665796  -0.453915
   21  H  3  S    0.067150   0.519023  -0.546839  -0.521264
   22  H  3  S    0.082515   0.319302  -0.076846  -0.190720
   23  H  3  X    0.246884   0.538177  -0.358430  -0.648208
   24  H  3  Y   -0.119158   0.178785  -0.176629  -0.265041
   25  H  3  Z    0.225202  -0.031909   0.140082   0.250667
   26  H  4  S    0.018321  -0.683185  -0.494183  -0.711208
   27  H  4  S   -0.025669  -0.351330  -0.055569  -0.260162
   28  H  4  X   -0.060116   0.594659   0.337494   0.637835
   29  H  4  Y    0.260780   0.276477   0.119975   0.470601
   30  H  4  Z    0.010761  -0.103474   0.090881   0.283037
 .....DONE WITH MCSCF ITERATIONS.....
 CPU     0: STEP CPU TIME=    12.38 TOTAL CPU TIME=         13.7 (      0.2 MIN)
 TOTAL WALL CLOCK TIME=         13.7 SECONDS, CPU UTILIZATION IS    99.93%

     ----------------------------------------------------------------
     PROPERTY VALUES FOR THE MCSCF SELF-CONSISTENT FIELD WAVEFUNCTION
     ----------------------------------------------------------------

          -----------------
          ENERGY COMPONENTS
          -----------------

         WAVEFUNCTION NORMALIZATION =       1.0000000000

                ONE ELECTRON ENERGY =     -92.6287358295
                TWO ELECTRON ENERGY =      26.5567300871
           NUCLEAR REPULSION ENERGY =      10.3941782720
                                      ------------------
                       TOTAL ENERGY =     -55.6778274704

 ELECTRON-ELECTRON POTENTIAL ENERGY =      26.5567300871
  NUCLEUS-ELECTRON POTENTIAL ENERGY =    -148.0975406533
   NUCLEUS-NUCLEUS POTENTIAL ENERGY =      10.3941782720
                                      ------------------
             TOTAL POTENTIAL ENERGY =    -111.1466322942
               TOTAL KINETIC ENERGY =      55.4688048238
                 VIRIAL RATIO (V/T) =       2.0037682919

          ---------------------------------------
          MULLIKEN AND LOWDIN POPULATION ANALYSES
          ---------------------------------------

     ATOMIC MULLIKEN POPULATION IN EACH MOLECULAR ORBITAL

                      1          2          3          4          5

                  2.000000   1.979244   1.651447   1.641096   1.634881

    1             2.000331   1.402295   1.520773   0.936157   1.194994
    2            -0.000241   0.312611   0.084686   0.118031   0.234738
    3            -0.000037   0.130806   0.013309   0.215578   0.182489
    4            -0.000053   0.133534   0.032680   0.371331   0.022660

                      6          7          8

                  0.042437   0.026689   0.024205

    1             0.014966   0.014384   0.013624
    2             0.002761   0.010594   0.000727
    3             0.014572   0.001798   0.002945
    4             0.010138  -0.000086   0.006909
 WARNING! MCSCF POPULATIONS SHOWN ABOVE ARE FOR THE NATURAL ORBITALS.
 IGNORE THE ABOVE DATA FOR MCSCF FUNCTIONS WHICH ARE NOT OF -FORS- TYPE.
 THE FOLLOWING POPULATIONS ARE CORRECT FOR ANY MCSCF WAVEFUNCTION.

               ----- POPULATIONS IN EACH AO -----
                             MULLIKEN      LOWDIN
              1  N  1  S      2.00202     1.90850
              2  N  1  S      0.81367     0.58440
              3  N  1  S      0.77204     0.44732
              4  N  1  X      0.61816     0.54925
              5  N  1  Y      0.73666     0.68329
              6  N  1  Z      0.83843     0.79337
              7  N  1  X      0.33807     0.43216
              8  N  1  Y      0.43050     0.49927
              9  N  1  Z      0.53116     0.57727
             10  N  1 XX      0.00099     0.18342
             11  N  1 YY      0.00199     0.16064
             12  N  1 ZZ      0.00494     0.14999
             13  N  1 XY      0.00416     0.00913
             14  N  1 XZ      0.00474     0.00790
             15  N  1 YZ      0.00000     0.00934
             16  H  2  S      0.63448     0.49317
             17  H  2  S      0.06748     0.16218
             18  H  2  X      0.01715     0.03249
             19  H  2  Y      0.02262     0.04484
             20  H  2  Z      0.02218     0.04501
             21  H  3  S      0.45017     0.35698
             22  H  3  S      0.06620     0.16190
             23  H  3  X      0.02445     0.03929
             24  H  3  Y      0.01233     0.02452
             25  H  3  Z      0.00831     0.01870
             26  H  4  S      0.47282     0.37775
             27  H  4  S      0.05653     0.16137
             28  H  4  X      0.02555     0.04095
             29  H  4  Y      0.01390     0.02626
             30  H  4  Z      0.00831     0.01935

          ----- MULLIKEN ATOMIC OVERLAP POPULATIONS -----
          (OFF-DIAGONAL ELEMENTS NEED TO BE MULTIPLIED BY 2)

             1           2           3           4

    1    6.3639822
    2    0.2465622   0.5284205
    3    0.2323184  -0.0063593   0.3411524
    4    0.2546599  -0.0047181  -0.0056524   0.3328236

          TOTAL MULLIKEN AND LOWDIN ATOMIC POPULATIONS
       ATOM         MULL.POP.    CHARGE          LOW.POP.     CHARGE
    1 N             7.097523   -0.097523         6.995239    0.004761
    2 H             0.763905    0.236095         0.777702    0.222298
    3 H             0.561459    0.438541         0.601382    0.398618
    4 H             0.577113    0.422887         0.625677    0.374323

          MULLIKEN SPHERICAL HARMONIC POPULATIONS
       ATOM           S       P       D      F      G      H      I    TOTAL
    1 N             3.59    3.49    0.02   0.00   0.00   0.00   0.00    7.10
    2 H             0.70    0.06    0.00   0.00   0.00   0.00   0.00    0.76
    3 H             0.52    0.05    0.00   0.00   0.00   0.00   0.00    0.56
    4 H             0.53    0.05    0.00   0.00   0.00   0.00   0.00    0.58

          ---------------------
          ELECTROSTATIC MOMENTS
          ---------------------

 POINT   1           X           Y           Z (BOHR)    CHARGE
                -0.000004    0.000006   -0.177185        1.00 (A.U.)
         DX          DY          DZ         /D/  (DEBYE)
    -0.861753    1.123627    2.059960    2.499719
 ...... END OF PROPERTY EVALUATION ......
 CPU     0: STEP CPU TIME=     0.00 TOTAL CPU TIME=         13.7 (      0.2 MIN)
 TOTAL WALL CLOCK TIME=         13.7 SECONDS, CPU UTILIZATION IS    99.93%

     -------------------------------------------------
     GMC-PT/GMC-QDPT or general MCSCF input parameters
     -------------------------------------------------
 # of frozen core orbs. =         0 ->         0
 # of doubly occ. orbs. =         1
 # of active      orbs. =         7
 # of virtual     orbs. =        21
 # of active electrons  =         7
 # of states in CI      =         3
 Highest state in CI    =         3
 kstate =  1 1 1
 avecoe =  0.333 0.333 0.333
 State symmetry           = A           
 Assigned symmetry number = 1

 <<<Act. MO sym.: 1111111

 <<<Division of 1-ext.:  0
 <<<Division of 2-ext.:  0

     ------------------------
     Orbital canonicalization
     ------------------------

 MOs are canonicalized for core, virtual, and invariant-active orbital spaces.
 This is a part of the GMC-QDPT calculation.
 SCHWARZ INEQUALITY OVERHEAD:       465 INTEGRALS, T=        0.00
 DIRECT TRANSFORMATION SKIPS AO INTEGRAL STORAGE ON DISK.

 Averaged energy =     -55.677827470

 State #    1  Energy =     -55.816738780  S =  0.500
 State #    2  Energy =     -55.671683631  S =  0.500
 State #    3  Energy =     -55.545060000  S =  0.500

 Orbital energies for filled orbital space
  -15.963993
 Orbital energies for active orbital space
   -1.448369  -0.904452  -0.799711  -0.683163   0.028887
    0.263292   0.296877
 Orbital energies for external orbital space
    0.172725   0.219842   0.261404   0.535348   0.634041
    0.710840   0.865098   1.028277   1.039585   1.091728
    1.247917   1.319515   1.514678   1.687323   1.816945
    1.948991   2.104663   2.119506   2.389142   2.644080
    3.030286

 Zero values mean non-canonical orbitals.
 ... done with orbital canonicalization ...
 CPU     0: STEP CPU TIME=     0.69 TOTAL CPU TIME=         14.4 (      0.2 MIN)
 TOTAL WALL CLOCK TIME=         14.4 SECONDS, CPU UTILIZATION IS   100.00%

     --------------------------------------------
     PARTIAL TWO ELECTRON INTEGRAL TRANSFORMATION
     --------------------------------------------

 NUMBER OF CORE MOLECULAR ORBITALS     =    0
 NUMBER OF OCCUPIED MOLECULAR ORBITALS =    8
 TOTAL NUMBER OF MOLECULAR ORBITALS    =   29
 TOTAL NUMBER OF ATOMIC ORBITALS       =   30
 THRESHOLD FOR KEEPING TRANSFORMED 2E- INTEGRALS = 1.000E-09
 AO INTEGRALS WILL BE CALCULATED IN DIRECT MODE...
 DIRECT TRANSFORMATION SKIPS AO INTEGRAL STORAGE ON DISK.
 SCHWARZ INEQUALITY OVERHEAD:       465 INTEGRALS, T=        0.00

 PLAN A: REQUIREMENTS FOR FULLY IN-MEMORY TRANSFORMATION:
 # OF WORDS AVAILABLE =            100000000
 # OF WORDS NEEDED    =               221798

 PARALLEL ONLY WORKS WITH THE SEGMENTED ALGORITHM.
 ADJUSTING MEMORY TO USE SEGMENTED ALGORITHM.


 PLAN B: REQUIREMENTS FOR THE SEGMENTED TRANSFORMATION:
       MINIMUM=         124148 WORDS FOR 1 MOLECULAR ORBITAL PER PASS
       MAXIMUM=         221798 WORDS FOR ALL MOLECULAR ORBITALS IN 1 PASS
              (          13950 EXTRA WORDS INCLUDES 1 EXTRA ORBITAL/PASS)
 THIS RUN USES=         221798 WORDS,
 DISTRIBUTING   1 PASSES EACH CONTAINING     8 ORBITALS OVER   1 PROCESSORS.

 CHOOSING SEGMENTED PARTIAL TRANSFORMATION...
 DIRECT TRANSFORMATION SKIPS AO INTEGRAL STORAGE ON DISK.
 PASS #   1 TOOK        0.04 SECONDS.
 TOTAL NUMBER OF TRANSFORMED 2E- INTEGRALS KEPT =        29226
 ... END OF INTEGRAL TRANSFORMATION ...
 CPU     0: STEP CPU TIME=     0.04 TOTAL CPU TIME=         14.4 (      0.2 MIN)
 TOTAL WALL CLOCK TIME=         14.4 SECONDS, CPU UTILIZATION IS    99.93%

     --------     ------------------------------------------
     GMC-QDPT     Program written by H.Nakano (Kyushu Univ.)
     --------     ------------------------------------------

 *** Reference space

 Reference type: ORMAS (= Occupation restricted multiple active space)
 # of orbitals          =  7
 # of minimum electrons =  7
 # of maximum electrons =  7
 State symmetry    =    1 (input)
 2*Sz              =    1 (input)
 Spin multiplicity =    2 (input)
 Dimension of reference space =      1225  (from      3432 walks)

 Dimension of reference space =      1225  (from      1225 walks)

 <<<Ionized spaces for Ref-CI:
      0:         1225 /   -1-0:         1960 /  0-1-0:         2891

 ***                    ***
 *** Reference space CI ***
 ***                    ***

 Converged after   35 iterations

 Reference wavefunctions:

 State #    1  Energy =     -55.816738780  S =  0.500

      Det      Coef    Occupancy (Ignoring core)
      ---      ----    --------- --------- -----
        1    0.969227  11110001110000
        2    0.052608  11101001110000
       36   -0.068806  11110001101000
      179    0.065538  10111001010100
      393    0.051179  10110101010010
      717    0.052774  11010011100001

 State #    2  Energy =     -55.671683631  S =  0.500

      Det      Coef    Occupancy (Ignoring core)
      ---      ----    --------- --------- -----
        1    0.072363  11110001110000
       36    0.970351  11110001101000
      249    0.069372  10111001001100
      463    0.052430  10110101001010

 State #    3  Energy =     -55.545060000  S =  0.500

      Det      Coef    Occupancy (Ignoring core)
      ---      ----    --------- --------- -----
       71    0.970812  11110001011000
       72   -0.054956  11101001011000
      109    0.053931  10111000111000
      177   -0.059430  11101001010100
      822   -0.054527  11010011001001

 Davidson method: CPU/Wall time =           0.48 /           0.48 sec.

 Oscillator strength (invalid if E(1)/=E(GS)):
 -----------------------------------------
   State                        f
 -----------------------------------------
     2     F(REF-CI)=        0.0049080373
     3     F(REF-CI)=        0.0049070367
 -----------------------------------------

 Dipole moment matrix elements, x, y, z, in A.U.

 Dimension of ionized spaces for PT:
 (N-2) space:         1715 /  (N-1) space:         2842 /  N space:         2891
 (N+1) space:         2842 /  (N+2) space:         1715

 <<<Ionized spaces for internal:
         0:         1225 /      -1-0:         1960 /     0-1-0:         2891
  -1-0-1-0:         2842 / 0-1-0-1-0:         3381

 Diagonal elements of averaged one-particle density matrix:
       2       3       4       5       6       7       8
  0.9921  0.9822  0.9826  0.9879  0.0252  0.0154  0.0146
  0.9867  0.6582  0.6571  0.6594  0.0171  0.0108  0.0107

 Orbital energies:
 -------- Doubly-occupied orbitals (highest several orbs.) -------
             1
 -1.596399D+01
 -------- Active orbitals ----------------------------------------
             2            3            4            5            6
 -1.448369D+00-9.044516D-01-7.997106D-01-6.831628D-01 2.888719D-02
             7            8
  2.632922D-01 2.968771D-01
 -------- External orbitals (lowest several orbs.) ---------------
             9           10           11           12           13
  1.727254D-01 2.198418D-01 2.614036D-01 5.353479D-01 6.340409D-01
            14           15           16           17           18
  7.108404D-01 8.650980D-01 1.028277D+00 1.039585D+00 1.091728D+00

 *** Quasi-degeneracy checking

 === Det (|Ci| > 1.0D-01 and dE < 5.0D-03)

 # of small denominators (single excitations)
 State       dEmin  dE < 5.0D-03  dE < 5.0D-04  dE < 5.0D-05  dE < 5.0D-06
 ----- ----------- ------------- ------------- ------------- -------------
     1    5.00D-03             0             0             0             0
     2    5.00D-03             0             0             0             0
     3    5.00D-03             0             0             0             0

 # of small denominators (double excitations)
 State       dEmin  dE < 5.0D-03  dE < 5.0D-04  dE < 5.0D-05  dE < 5.0D-06
 ----- ----------- ------------- ------------- ------------- -------------
     1    5.00D-03             0             0             0             0
     2    5.00D-03             0             0             0             0
     3    5.00D-03             0             0             0             0

 *** Zeroth-Order Setup (Granovsky's zeroth-order vectors)
 Zeroth-order effective Hamiltonian
  (= Sum_i e(i)*<I|a+(i)a(i)|J> ):
                   1            2            3
     1 -6.874012D+00
     2 -1.546500D-02-6.771745D+00
     3  2.753330D-04 7.252067D-03-6.666529D+00

 Zeroth-order vectors:
 State #    1
       MC st            1           2           3
       Coeff    9.892D-01   1.467D-01  -6.371D-03
 State #    2
       MC st            2           1           3
       Coeff   -9.868D-01   1.468D-01   6.880D-02
 State #    3
       MC st            3           2           1
       Coeff    9.976D-01   6.899D-02  -3.809D-03

 *** GMC-QDPT computation

 (Integral reading:  CPU/Wall time =           0.00 /           0.00 sec.)

 One-external:
   0 -ionized terms: CPU/Wall time =           0.03 /           0.03 sec.
 (-1)-ionized terms: CPU/Wall time =           0.09 /           0.09 sec.
 (+1)-ionized terms: CPU/Wall time =           0.02 /           0.02 sec.
 (+1)-ionized terms: CPU/Wall time =           0.01 /           0.01 sec.
 (+2)-ionized terms: CPU/Wall time =           0.00 /           0.00 sec.

 Internal:
 # of macro loops for internal contribution =         1 (input)
 Loop:    1
 Dimension of internal CISD space     =         0  (after screening)
 Space construction: CPU/Wall time =           0.02 /           0.02 sec.
 Internal terms:     CPU/Wall time =           0.00 /           0.00 sec.

 Two-external:
   0 -ionized terms: CPU/Wall time =           0.06 /           0.06 sec.
 (-1)-ionized terms: CPU/Wall time =           1.00 /           1.00 sec.
 (-2)-ionized terms: CPU/Wall time =           0.17 /           0.16 sec.

 Total time:         CPU/Wall time =           1.40 /           1.39 sec.

 ***                  ***
 *** GMC-QDPT Results ***
 ***                  ***

 Diagonal elements of effective Hamiltonian:
 Heff(  1) =   -55.91374773
 Heff(  2) =   -55.78232405
 Heff(  3) =   -55.65659480

 Off-diagonal elements of effective Hamiltonian:
                   1            2
     2 -1.861829D-02
     3 -7.133956D-04 8.484319D-03

 ******** GMC-QDPT energies ********
 ----------------------------------------------------------------------------
   State                        1st order                           2nd order
 ----------------------------------------------------------------------------
     1     E(REF-CI)=      -55.8167387802   E(GMC-QDPT2)=      -55.9163352267
     2     E(REF-CI)=      -55.6716836307   E(GMC-QDPT2)=      -55.7803215655
     3     E(REF-CI)=      -55.5450600003   E(GMC-QDPT2)=      -55.6560097982
 ----------------------------------------------------------------------------

 Excitation energies (invalid if E(1)/=E(GS)):
 ----------------------------------------------------------------------------
   State                        1st order                           2nd order
 ----------------------------------------------------------------------------

     TZ Sorted GMC-PT ENERGIES:
         1      -55.9163352267
         2      -55.7803215655
         3      -55.6560097982
     2     E(REF-CI)=        3.9471537 eV   E(GMC-QDPT2)=        3.7011221 eV
     3     E(REF-CI)=        7.3927600 eV   E(GMC-QDPT2)=        7.0838194 eV
 ----------------------------------------------------------------------------

 Main characters of perturbed GMC-QDPT states:

 State #    1  Energy =     -55.916335227  S =  0.500

      Det      Coef    Occupancy (Ignoring core)
      ---      ----    --------- --------- -----
        1    0.969851  11110001110000
        2    0.053023  11101001110000
       36   -0.059820  11110001101000
      179    0.065627  10111001010100
      393    0.051202  10110101010010
      717    0.052859  11010011100001

 State #    2  Energy =     -55.780321565  S =  0.500

      Det      Coef    Occupancy (Ignoring core)
      ---      ----    --------- --------- -----
        1    0.063329  11110001110000
       36    0.970971  11110001101000
      249    0.069389  10111001001100
      463    0.052470  10110101001010

 State #    3  Energy =     -55.656009798  S =  0.500

      Det      Coef    Occupancy (Ignoring core)
      ---      ----    --------- --------- -----
       71    0.970829  11110001011000
       72   -0.054957  11101001011000
      109    0.053931  10111000111000
      177   -0.059427  11101001010100
      822   -0.054535  11010011001001

 <<<Max |V/de| = 2.859D-02  Thresh = 1.000D+00

 Oscillator strength (invalid if E(1)/=E(GS)):
 ----------------------------------------------------------------------------
   State                        1st order                           2nd order
 ----------------------------------------------------------------------------
     2     F(REF-CI)=        0.0049080373     F(GMC-PT2)=        0.0046700074
     3     F(REF-CI)=        0.0049070367     F(GMC-PT2)=        0.0048185867
 ----------------------------------------------------------------------------

 Dipole moment matrix elements, x, y, z, in A.U.
States    1    1       -0.2630538695        0.3539383684        0.5893840606
States    1    2       -0.0162691901        0.0839986168       -0.2101946882
States    1    3       -0.1519883272       -0.0565607178       -0.0382782013
States    2    1       -0.0162691901        0.0839986168       -0.2101946882
States    2    2       -0.1995477874        0.4456294148        0.4277465299
States    2    3       -0.1637512933       -0.1168770531       -0.0022813124
States    3    1       -0.1519883272       -0.0565607178       -0.0382782013
States    3    2       -0.1637512933       -0.1168770531       -0.0022813124
States    3    3       -0.4049193395        0.3870268016        0.3637438555

 Oscillator strength (valid only when positive): 
 ----------------------------------------------------------------------------
  States                        1st order                           2nd order
 ----------------------------------------------------------------------------
  1  1     F(REF-CI)=        0.0000000000     F(GMC-PT2)=        0.0000000000
  1  2     F(REF-CI)=       -0.0049080373     F(GMC-PT2)=       -0.0046700074
  1  3     F(REF-CI)=       -0.0049070367     F(GMC-PT2)=       -0.0048185867
  2  1     F(REF-CI)=        0.0049080373     F(GMC-PT2)=        0.0046700074
  2  2     F(REF-CI)=        0.0000000000     F(GMC-PT2)=        0.0000000000
  2  3     F(REF-CI)=       -0.0034684481     F(GMC-PT2)=       -0.0033547549
  3  1     F(REF-CI)=        0.0049070367     F(GMC-PT2)=        0.0048185867
  3  2     F(REF-CI)=        0.0034684481     F(GMC-PT2)=        0.0033547549
  3  3     F(REF-CI)=        0.0000000000     F(GMC-PT2)=        0.0000000000
 CPU     0: STEP CPU TIME=     1.94 TOTAL CPU TIME=         16.4 (      0.3 MIN)
 TOTAL WALL CLOCK TIME=         16.4 SECONDS, CPU UTILIZATION IS    99.94%

     !!! DIABATIZATION FOR REF CI STATES !!!

 *******************************************************
          $DMO GROUP FOUND IN THE INPUT.
        DIABATIZATION OF ADIABATIC STATES BEGINS.
     PROGRAMMED BY TAO ZENG (CARLETON UNIVERSITY).
               Email: toby.zeng@carleton.ca
     See T. Zeng, J. Chem. Phys. 2017, 146, 144103
 *******************************************************

 *************************************************************************
     STEP 1: TRANSFORMATION OF ADIABATIC STATES TO THE DMO REPRESENTATION
         See Atchity and Ruedenberg, J. Chem. Phys. 1999, 111, 2910
 *************************************************************************

Read in Diabatic Molecualr Orbitals:

                      1          2          3          4          5

    1  N  1  S    0.008609   0.000000   0.000000  -0.013219   0.279491
    2  N  1  S    0.442914  -0.000000   0.000000  -0.184329   0.867803
    3  N  1  S    0.276913   0.000000  -0.000000  -0.288315   0.144236
    4  N  1  X   -0.000000   0.493155  -0.024636  -0.000000  -0.000000
    5  N  1  Y    0.000000   0.024636   0.493155  -0.000000   0.000000
    6  N  1  Z    0.090197   0.000000   0.000000   0.593421   0.705309
    7  N  1  X   -0.000000   0.210628  -0.010522   0.000000   0.000000
    8  N  1  Y    0.000000   0.010522   0.210628  -0.000000  -0.000000
    9  N  1  Z   -0.004381   0.000000   0.000000   0.381592  -0.106092
   10  N  1 XX   -0.000457   0.010719  -0.000535  -0.012387   0.006153
   11  N  1 YY   -0.000457  -0.010719   0.000535  -0.012387   0.006153
   12  N  1 ZZ    0.000914  -0.000000   0.000000   0.024773  -0.012306
   13  N  1 XY    0.000000  -0.000618  -0.012377  -0.000000   0.000000
   14  N  1 XZ   -0.000000   0.026529  -0.001325  -0.000000   0.000000
   15  N  1 YZ    0.000000   0.001325   0.026529  -0.000000   0.000000
   16  H  2  S    0.194462  -0.176074   0.343485   0.112865  -0.523343
   17  H  2  S    0.003574  -0.023812   0.046452   0.024014  -0.054445
   18  H  2  X    0.018760   0.009101   0.022834   0.009336  -0.039151
   19  H  2  Y   -0.032493   0.022287  -0.020044  -0.016171   0.067811
   20  H  2  Z   -0.009251   0.008464  -0.016511   0.018769  -0.010566
   21  H  3  S    0.194462  -0.209430  -0.324227   0.112865  -0.523343
   22  H  3  S    0.003574  -0.028322  -0.043847   0.024014  -0.054445
   23  H  3  X    0.018760   0.006781  -0.023627   0.009336  -0.039151
   24  H  3  Y    0.032493  -0.024174  -0.017723   0.016171  -0.067811
   25  H  3  Z   -0.009251   0.010067   0.015585   0.018769  -0.010566
   26  H  4  S    0.194462   0.385503  -0.019258   0.112865  -0.523343
   27  H  4  S    0.003574   0.052134  -0.002604   0.024014  -0.054445
   28  H  4  X   -0.037519  -0.032295   0.001613  -0.018672   0.078302
   29  H  4  Y    0.000000   0.001067   0.021353  -0.000000   0.000000
   30  H  4  Z   -0.009251  -0.018530   0.000926   0.018769  -0.010566

                      6          7

    1  N  1  S    0.000000  -0.000000
    2  N  1  S    0.000000  -0.000000
    3  N  1  S   -0.000000   0.000000
    4  N  1  X   -0.930415  -0.002083
    5  N  1  Y   -0.002083   0.930415
    6  N  1  Z   -0.000000   0.000000
    7  N  1  X   -0.046866  -0.000105
    8  N  1  Y   -0.000105   0.046866
    9  N  1  Z   -0.000000   0.000000
   10  N  1 XX    0.001538   0.000003
   11  N  1 YY   -0.001538  -0.000003
   12  N  1 ZZ   -0.000000   0.000000
   13  N  1 XY   -0.000004   0.001776
   14  N  1 XZ    0.039985   0.000090
   15  N  1 YZ    0.000090  -0.039985
   16  H  2  S   -0.362630  -0.631354
   17  H  2  S   -0.065964  -0.114846
   18  H  2  X    0.002763  -0.037520
   19  H  2  Y    0.037435   0.040736
   20  H  2  Z    0.001882   0.003276
   21  H  3  S   -0.365454   0.629724
   22  H  3  S   -0.066477   0.114549
   23  H  3  X    0.002595   0.037532
   24  H  3  Y   -0.037617   0.040567
   25  H  3  Z    0.001896  -0.003268
   26  H  4  S    0.728084   0.001630
   27  H  4  S    0.132441   0.000297
   28  H  4  X   -0.062317  -0.000140
   29  H  4  Y    0.000055  -0.024345
   30  H  4  Z   -0.003778  -0.000008

NUMBER OF SUB ACTIVE SPACES:   1
ROTATE ACTIVE MOS TO DMOS IN EACH SUB-SPACE

SPACE  1:

OVERLAP BETWEEN ORTHONORMAL AND PRE-ORTHONORMAL REF. DMOS

             1           2           3           4           5

    1    0.9496436  -0.0261126   0.0511591  -0.0154668   0.0193616
    2   -0.0261126   0.9937860   0.0468303  -0.0320219   0.0439784
    3    0.0511591   0.0468303   0.8839419   0.0524364  -0.0539968
    4   -0.0154668  -0.0320219   0.0524364   0.9922674  -0.0224915
    5    0.0193616   0.0439784  -0.0539968  -0.0224915   1.1992886
    6   -0.0039974   0.0312373   0.0475065  -0.0376637  -0.0168659
    7   -0.0084008  -0.0310626   0.0562235  -0.0446565  -0.0769420

             6           7

    1   -0.0039974  -0.0084008
    2    0.0312373  -0.0310626
    3    0.0475065   0.0562235
    4   -0.0376637  -0.0446565
    5   -0.0168659  -0.0769420
    6    1.1117100   0.0115693
    7    0.0115693   1.1195583
REFERENCE DMOS AFTER ORTHONORMALIZATION:

                      1          2          3          4          5

    1  N  1  S    0.003225  -0.010868   0.014133  -0.008272   0.234865
    2  N  1  S    0.447438  -0.025296   0.025822  -0.162468   0.718339
    3  N  1  S    0.284031  -0.006834   0.008088  -0.284638   0.110723
    4  N  1  X    0.012129   0.525477  -0.012898  -0.014344  -0.031046
    5  N  1  Y   -0.021228   0.023515   0.511874   0.010399   0.074355
    6  N  1  Z    0.094000  -0.002624  -0.011030   0.617826   0.602494
    7  N  1  X    0.007303   0.215527  -0.022613   0.006590  -0.009118
    8  N  1  Y   -0.013129  -0.000673   0.239196  -0.011633   0.012576
    9  N  1  Z    0.005644   0.017645  -0.030608   0.385974  -0.082415
   10  N  1 XX   -0.000476   0.010173  -0.000175  -0.012016   0.004550
   11  N  1 YY   -0.001267  -0.011565   0.002510  -0.012971   0.005386
   12  N  1 ZZ    0.001743   0.001392  -0.002335   0.024987  -0.009936
   13  N  1 XY    0.000824   0.000178  -0.014322   0.000891  -0.000491
   14  N  1 XZ    0.001198   0.025980  -0.005087   0.002495  -0.000606
   15  N  1 YZ   -0.002185  -0.001488   0.032821  -0.003570  -0.000927
   16  H  2  S    0.180598  -0.179106   0.414658   0.038017  -0.457533
   17  H  2  S   -0.000212  -0.025741   0.060364   0.011878  -0.049328
   18  H  2  X    0.019199   0.009078   0.024006   0.006363  -0.034407
   19  H  2  Y   -0.033335   0.019884  -0.022053  -0.010550   0.058272
   20  H  2  Z   -0.007754   0.010418  -0.020982   0.020330  -0.009313
   21  H  3  S    0.238554  -0.133872  -0.426356   0.139540  -0.420258
   22  H  3  S    0.008308  -0.017825  -0.056826   0.028306  -0.041066
   23  H  3  X    0.023085   0.011837  -0.033768   0.012845  -0.032508
   24  H  3  Y    0.036728  -0.017020  -0.026101   0.016750  -0.055618
   25  H  3  Z   -0.009913   0.009897   0.016270   0.017929  -0.008145
   26  H  4  S    0.237018   0.404201  -0.127503   0.151157  -0.449502
   27  H  4  S    0.008068   0.052748  -0.017170   0.030377  -0.046029
   28  H  4  X   -0.043220  -0.036170   0.014482  -0.021921   0.066910
   29  H  4  Y   -0.001668  -0.000958   0.025957  -0.002514  -0.000317
   30  H  4  Z   -0.009869  -0.017984   0.001206   0.017830  -0.007666

                      6          7

    1  N  1  S    0.002842   0.014795
    2  N  1  S    0.006150   0.044183
    3  N  1  S   -0.007074  -0.002135
    4  N  1  X   -0.852253   0.019559
    5  N  1  Y   -0.031452   0.811693
    6  N  1  Z    0.030259   0.066924
    7  N  1  X   -0.047210   0.007201
    8  N  1  Y   -0.010862   0.030244
    9  N  1  Z    0.012537   0.011671
   10  N  1 XX    0.000764   0.000116
   11  N  1 YY   -0.001522  -0.000591
   12  N  1 ZZ    0.000758   0.000475
   13  N  1 XY    0.000605   0.002312
   14  N  1 XZ    0.035527   0.000756
   15  N  1 YZ   -0.001032  -0.037617
   16  H  2  S   -0.337484  -0.614810
   17  H  2  S   -0.060408  -0.108620
   18  H  2  X    0.001347  -0.036447
   19  H  2  Y    0.034036   0.041027
   20  H  2  Z    0.002771   0.004353
   21  H  3  S   -0.313388   0.561884
   22  H  3  S   -0.057581   0.103640
   23  H  3  X    0.003116   0.033967
   24  H  3  Y   -0.032747   0.034534
   25  H  3  Z    0.001216  -0.003393
   26  H  4  S    0.648279  -0.010709
   27  H  4  S    0.118750  -0.000528
   28  H  4  X   -0.055562   0.002118
   29  H  4  Y   -0.000888  -0.023200
   30  H  4  Z   -0.002488  -0.000431

 -------------------------------------------
       MAXIMIZING MORMO OVERLAP TERM        
 -------------------------------------------
   SWEEP    VALUE       PROGRESS
     0     4.77657
     1     6.85374     2.07716344
     2     6.90407     0.05032717
     3     6.90407     0.00000747
     4     6.90407     0.00000000
     5     6.90407     0.00000000
     6     6.90407     0.00000000
 THE ROTATION IS DONE
FLIPPING SIGN FOR ORBITAL   7
ACTIVE ORBITALS AFTER MORMO:

                      1          2          3          4          5

    1  N  1  S   -0.002137  -0.019907   0.036776  -0.015715   0.168306
    2  N  1  S    0.396164  -0.049818   0.097521  -0.203072   0.652138
    3  N  1  S    0.369965   0.045478  -0.113280  -0.247879   0.203456
    4  N  1  X   -0.002653   0.494134   0.013692  -0.036683  -0.005583
    5  N  1  Y    0.011877   0.050662   0.427971   0.054385   0.032761
    6  N  1  Z    0.073438  -0.028182   0.032931   0.609871   0.599851
    7  N  1  X    0.018369   0.241585  -0.053908   0.050011  -0.045826
    8  N  1  Y   -0.040417  -0.029432   0.331773  -0.077669   0.061474
    9  N  1  Z    0.047087   0.055618  -0.092697   0.386420  -0.072959
   10  N  1 XX    0.007761   0.007419  -0.020823  -0.005673  -0.030626
   11  N  1 YY   -0.006141  -0.006937   0.019022  -0.014884   0.018291
   12  N  1 ZZ   -0.001620  -0.000482   0.001802   0.020557   0.012336
   13  N  1 XY    0.010739   0.017274  -0.035363   0.011094  -0.040401
   14  N  1 XZ   -0.002966   0.013022  -0.000461  -0.001148   0.032192
   15  N  1 YZ    0.002475   0.002081   0.015444   0.004499  -0.048135
   16  H  2  S    0.173695  -0.171690   0.369351   0.071677  -0.474272
   17  H  2  S   -0.013274  -0.052794   0.146832   0.015168  -0.082832
   18  H  2  X    0.016462   0.013334   0.017361   0.012223  -0.011909
   19  H  2  Y   -0.025859   0.014917  -0.000882  -0.019841   0.036890
   20  H  2  Z   -0.016100   0.018062  -0.033181   0.014485  -0.005578
   21  H  3  S    0.191895  -0.161149  -0.320071   0.108483  -0.389593
   22  H  3  S    0.025157  -0.008915  -0.130782   0.041446  -0.075673
   23  H  3  X    0.028303  -0.017155  -0.038711   0.013772  -0.039655
   24  H  3  Y    0.010125  -0.022267   0.009707  -0.000134  -0.020825
   25  H  3  Z   -0.001419   0.008152   0.001602   0.018118  -0.023184
   26  H  4  S    0.193445   0.355335  -0.058736   0.115118  -0.416576
   27  H  4  S    0.020634   0.083328  -0.054599   0.042697  -0.081417
   28  H  4  X   -0.026293  -0.029878  -0.015796  -0.007853   0.038862
   29  H  4  Y   -0.018260  -0.029720   0.021339  -0.010372   0.026795
   30  H  4  Z   -0.000909  -0.004300  -0.003123   0.019493  -0.019142

                      6          7

    1  N  1  S   -0.033801  -0.031375
    2  N  1  S   -0.083924  -0.089676
    3  N  1  S    0.106145   0.153788
    4  N  1  X   -0.838331   0.032325
    5  N  1  Y   -0.036214   0.809079
    6  N  1  Z    0.049263   0.117318
    7  N  1  X   -0.077699  -0.013392
    8  N  1  Y   -0.000267   0.041497
    9  N  1  Z   -0.000169  -0.041666
   10  N  1 XX   -0.021909   0.051429
   11  N  1 YY    0.030571  -0.046013
   12  N  1 ZZ   -0.008662  -0.005416
   13  N  1 XY    0.057857   0.036247
   14  N  1 XZ    0.042001  -0.009788
   15  N  1 YZ    0.016934  -0.028947
   16  H  2  S   -0.330995  -0.560580
   17  H  2  S   -0.099913  -0.211752
   18  H  2  X    0.042897  -0.033558
   19  H  2  Y    0.036890   0.000632
   20  H  2  Z    0.005901   0.013744
   21  H  3  S   -0.313879   0.472426
   22  H  3  S   -0.087035   0.180091
   23  H  3  X   -0.014345   0.047518
   24  H  3  Y   -0.036108   0.003453
[...]

             1           2           3

    1   -0.8256607   0.2753041  -0.4924348
    2    0.5570331   0.2594453  -0.7889247
    3    0.0894343   0.9256867   0.3675673

 ---------------------------------------
          - DIABATIC STATES -           
 ---------------------------------------

 State #    1  Energy =     -55.872049896

      Det      Coef        Coefp    Occupancy (Ignoring core)
      ---      ----        ----    --------- --------- -----
        1    0.877057   -0.877057  222+000
       17    0.185840    0.185840  22-+00+
      701   -0.152988   -0.152988  22++00-
        3   -0.149917   -0.149917  22-++00
      141    0.144477    0.144477  22++-00
       16   -0.122272    0.122272  222000+
        4    0.095786   -0.095786  2-2++00
        7    0.094727    0.094727  22-+0+0
      351   -0.094132   -0.094132  22++0-0
      176   -0.092744    0.092744  2+2+-00
        6   -0.082002    0.082002  22200+0
      393   -0.071185   -0.071185  202+020
        5    0.068627    0.068627  -22++00
      736    0.064962   -0.064962  2+2+00-
       18   -0.062235    0.062235  2-2+00+
      717   -0.057141   -0.057141  220+002
      211   -0.050324   -0.050324  +22+-00
       19   -0.045145   -0.045145  -22+00+
      402    0.043023   -0.043023  2+-+0-+
      708    0.037940   -0.037940  2-++0+-
      390    0.037206   -0.037206  -+2++-0
      215   -0.035835   -0.035835  022+200
      218    0.035135   -0.035135  +-2+-+0
      192    0.034733   -0.034733  2+-+-0+
      716    0.033889    0.033889  22+0002
      704    0.033297   -0.033297  2-+++0-
       51   -0.032852    0.032852  22+-00+
     1051   -0.032676   -0.032676  2+++0--
       20   -0.032478   -0.032478  22-0+0+
        2    0.030688   -0.030688  2220+00
      212    0.030107    0.030107  +220200
       76    0.029489    0.029489  2+2-0+0
      706    0.029280    0.029280  22+00+-
        8   -0.028813    0.028813  2-2+0+0
      179   -0.028681   -0.028681  202+200
      122    0.027292    0.027292  +2-200+
       29   -0.026712   -0.026712  2--+0++
      771    0.025805    0.025805  +22+00-
      705   -0.024831   -0.024831  -2+++0-
      387   -0.024313    0.024313  2+20+-0
      702    0.024185    0.024185  22+0+0-
      227   -0.023920   -0.023920  +2-+-0+
      738   -0.023564   -0.023564  2+-++0-
      424   -0.023364   -0.023364  +-2++-0
      158   -0.022645   -0.022645  2-++-0+
      773    0.022154   -0.022154  +2-++0-
      113   -0.022004    0.022004  +-220+0
      353   -0.021430   -0.021430  220++-0
      184   -0.021427   -0.021427  -+2+-+0
      753   -0.020635   -0.020635  202+002
      751   -0.020623    0.020623  2+20002

 State #    2  Energy =     -55.684108125

      Det      Coef        Coefp    Occupancy (Ignoring core)
      ---      ----        ----    --------- --------- -----
       71   -0.863080    0.863080  2+22000
       73   -0.160808    0.160808  2+-2+00
      246    0.154827    0.154827  2++2-00
      806   -0.145034   -0.145034  2++200-
      736    0.140305   -0.140305  2+2+00-
       87    0.137677   -0.137677  2+-200+
       86   -0.135600   -0.135600  2+2-00+
       77    0.120901   -0.120901  2+-20+0
      456   -0.104953   -0.104953  2++20-0
      386    0.087150   -0.087150  2+2+0-0
       76   -0.085371   -0.085371  2+2-0+0
      822    0.067504   -0.067504  2+02002
       74   -0.066645    0.066645  2022+00
      106   -0.065128   -0.065128  +222000
      316    0.064568    0.064568  ++22-00
       88    0.050743   -0.050743  202200+
      813    0.049595   -0.049595  20+20+-
       75   -0.046747   -0.046747  -+22+00
      122    0.045019    0.045019  +2-200+
       38   -0.044799    0.044799  2202+00
       90    0.044508    0.044508  2+--+0+
       99   -0.042181    0.042181  20-20++
      752    0.041217    0.041217  2+-+002
      821   -0.039959    0.039959  2++-002
      876   -0.038715   -0.038715  ++2200-
      911    0.038623    0.038623  2+++-0-
      108   -0.038173   -0.038173  +2-2+00
       36    0.037942    0.037942  22+2000
      320    0.037594    0.037594  0+22200
      177    0.035519   -0.035519  2+20200
       78   -0.035360    0.035360  20220+0
      317    0.035035   -0.035035  ++2-200
      323   -0.034919    0.034919  +022-+0
        6    0.034370   -0.034370  22200+0
      180   -0.033847    0.033847  -+2+200
      112    0.031849    0.031849  +2-20+0
      807   -0.031774    0.031774  2++-+0-
      810   -0.030636   -0.030636  -++2+0-
      332   -0.030116    0.030116  ++-2-0+
      192   -0.029582    0.029582  2+-+-0+
       51    0.029535   -0.029535  22+-00+
      811   -0.027848    0.027848  2++-0+-
      402   -0.027437    0.027437  2+-+0-+
      742    0.026731    0.026731  2+-+0+-
      809    0.026541   -0.026541  20+2+0-
       52    0.026187   -0.026187  220200+
      183   -0.025378    0.025378  202+-+0
      526   -0.024660   -0.024660  ++220-0
      263   -0.024322   -0.024322  20+2-0+
      111    0.024216   -0.024216  +22-0+0
      841   -0.023623    0.023623  +2+200-
      264    0.023387   -0.023387  -++2-0+
      471    0.023247    0.023247  2++-0-+
       89    0.022118    0.022118  -+2200+
      878    0.021666    0.021666  ++-2+0-
       54   -0.021396    0.021396  -2+200+
       80    0.020824    0.020824  2+--++0
      281    0.020354   -0.020354  +2+2-00
      392    0.020276    0.020276  2+-+020

 State #    3  Energy =     -55.796508569

      Det      Coef        Coefp    Occupancy (Ignoring core)
      ---      ----        ----    --------- --------- -----
       36   -0.865283   -0.865283  22+2000
       38    0.167246   -0.167246  2202+00
       52   -0.159403    0.159403  220200+
       51   -0.150556    0.150556  22+-00+
      701    0.138062    0.138062  22++00-
       39   -0.134430   -0.134430  2-+2+00
      246    0.112053    0.112053  2++2-00
       41   -0.108874    0.108874  22+-0+0
      106    0.103141    0.103141  +222000
      351    0.101666    0.101666  22++0-0
       53    0.091612    0.091612  2-+200+
       42   -0.083821    0.083821  22020+0
      806   -0.081702   -0.081702  2++200-
      463    0.069277   -0.069277  20+2020
       40   -0.067778    0.067778  -2+2+00
      472   -0.050130   -0.050130  2+020-+
       54    0.049733   -0.049733  -2+200+
       55   -0.048354   -0.048354  220-+0+
       71   -0.045829    0.045829  2+22000
      717   -0.043810   -0.043810  220+002
       64    0.042805   -0.042805  2-020++
      123    0.042366   -0.042366  +-2200+
      460   -0.038937   -0.038937  -++2+-0
      288   -0.038463   -0.038463  +-+2-+0
      285    0.035928   -0.035928  02+2200
      122   -0.035885   -0.035885  +2-200+
      367    0.035867   -0.035867  220+0-+
      142    0.035131    0.035131  22+0200
      109   -0.035004    0.035004  +-22+00
      145   -0.034437   -0.034437  -2++200
      281    0.033985   -0.033985  +2+2-00
      108    0.033793    0.033793  +2-2+00
      262   -0.033536   -0.033536  2+02-0+
      282    0.032915    0.032915  +2+-200
      157    0.032167   -0.032167  220+-0+
      297    0.030218   -0.030218  +202-0+
      876   -0.026229   -0.026229  ++2200-
      249    0.026091   -0.026091  20+2200
       45   -0.026052   -0.026052  220-++0
      457   -0.025921    0.025921  2++-+-0
      316    0.025402    0.025402  ++22-00
       46    0.025011   -0.025011  2-+-++0
      494    0.024992   -0.024992  +-+2+-0
      718    0.024467   -0.024467  2-++002
       16   -0.024125    0.024125  222000+
      148   -0.024124   -0.024124  2-++-+0
       88    0.023958   -0.023958  202200+
       73    0.022376   -0.022376  2+-2+00
      821   -0.022138    0.022138  2++-002
      254    0.021776   -0.021776  -++2-+0
      353    0.021548    0.021548  220++-0
      561    0.021345    0.021345  2+++--0
       56    0.021173   -0.021173  2-+-+0+
      112   -0.020105   -0.020105  +2-20+0
      707   -0.020013   -0.020013  220+0+-

 ---------------------------------------
      - DIABATIC STATES IN CMO -        
 ---------------------------------------

 State #    1  Energy =     -55.872049896

      Det      Coef        Coefp    Occupancy (Ignoring core)
      ---      ----        ----    --------- --------- -----
        1    0.766063   -0.766063  222+000
       36    0.586311    0.586311  22+2000
       71   -0.107947    0.107947  2+22000
      142   -0.051645   -0.051645  22+0200
      179   -0.049052   -0.049052  202+200
      143   -0.046130   -0.046130  220+200
      393   -0.040992   -0.040992  202+020
      249   -0.040783    0.040783  20+2200
      148    0.040677    0.040677  2-++-+0
      717   -0.038706   -0.038706  220+002
      157    0.038638   -0.038638  220+-0+
        8   -0.037412    0.037412  2-2+0+0
      106   -0.036339   -0.036339  +222000
       17   -0.033290   -0.033290  22-+00+
      145    0.030221    0.030221  -2++200
      463   -0.029820    0.029820  20+2020
      357   -0.026926   -0.026926  220+020
      703   -0.026750   -0.026750  220++0-
      122   -0.025818   -0.025818  +2-200+
      212    0.025389    0.025389  +220200
      218    0.023710   -0.023710  +-2+-+0
      113   -0.023654    0.023654  +-220+0
      108   -0.023303   -0.023303  +2-2+00
       43   -0.023054   -0.023054  2-+20+0
       76    0.022607    0.022607  2+2-0+0
      753   -0.022539   -0.022539  202+002
      707    0.022312    0.022312  220+0+-
      367   -0.022219    0.022219  220+0-+
      743   -0.022131   -0.022131  202+0+-
      147   -0.022050    0.022050  220+-+0
      141   -0.021891   -0.021891  22++-00
      403    0.021738   -0.021738  202+0-+
      387   -0.021587    0.021587  2+20+-0
      402   -0.021468    0.021468  2+-+0-+
      789   -0.021140   -0.021140  022+002
      813   -0.020309    0.020309  20+20+-

 State #    2  Energy =     -55.684108125

      Det      Coef        Coefp    Occupancy (Ignoring core)
      ---      ----        ----    --------- --------- -----
       71   -0.910422    0.910422  2+22000
        1   -0.277525    0.277525  222+000
       36    0.194628    0.194628  22+2000
      177    0.055657   -0.055657  2+20200
      822    0.054473   -0.054473  2+02002
       72   -0.047472   -0.047472  2+2-+00
      109   -0.045274    0.045274  +-22+00
        4    0.043117   -0.043117  2-2++00
      248    0.042991   -0.042991  2+02200
        2   -0.040831    0.040831  2220+00
      112    0.034917    0.034917  +2-20+0
      813   -0.034568    0.034568  20+20+-
      808    0.034220   -0.034220  2+02+0-
      180   -0.032849    0.032849  -+2+200
      462    0.032584   -0.032584  2+02020
      317    0.032015   -0.032015  ++2-200
      178   -0.030920   -0.030920  2+-+200
       75    0.030180    0.030180  -+22+00
      262   -0.029388   -0.029388  2+02-0+
      108   -0.029255   -0.029255  +2-2+00
       37   -0.029056    0.029056  22+-+00
      247    0.027942   -0.027942  2++-200
       99    0.027102   -0.027102  20-20++
      183   -0.026369    0.026369  202+-+0
      812   -0.025505    0.025505  2+020+-
      320    0.025309    0.025309  0+22200
      894    0.024669    0.024669  0+22002
        3    0.024505    0.024505  22-++00
      249   -0.024343    0.024343  20+2200
      534    0.024043    0.024043  0+22020
      111    0.023573   -0.023573  +22-0+0
      179    0.022809    0.022809  202+200
        6    0.022174   -0.022174  22200+0
      807    0.022089   -0.022089  2++-+0-
      323   -0.021418    0.021418  +022-+0
       74    0.021265   -0.021265  2022+00
      253    0.020524    0.020524  20+2-+0
      542    0.020003   -0.020003  ++-20-+

 State #    3  Energy =     -55.796508569

      Det      Coef        Coefp    Occupancy (Ignoring core)
      ---      ----        ----    --------- --------- -----
       36   -0.752773   -0.752773  22+2000
        1    0.529897   -0.529897  222+000
       71   -0.322144    0.322144  2+22000
        2    0.052932   -0.052932  2220+00
      249    0.051152   -0.051152  20+2200
      463    0.047850   -0.047850  20+2020
      179   -0.038274   -0.038274  202+200
      472    0.033860    0.033860  2+020-+
      108    0.033269    0.033269  +2-2+00
      717   -0.032884   -0.032884  220+002
      109   -0.032596    0.032596  +-22+00
       72   -0.029341   -0.029341  2+2-+00
      462    0.028849   -0.028849  2+02020
      457   -0.027598    0.027598  2++-+-0
      458   -0.027010    0.027010  2+02+-0
      393   -0.026760   -0.026760  202+020
        4    0.025981   -0.025981  2-2++00
      122    0.025000    0.025000  +2-200+
      142    0.024513    0.024513  22+0200
      357   -0.024436   -0.024436  220+020
       64   -0.024387    0.024387  2-020++
      282    0.023658    0.023658  +2+-200
      121    0.022949   -0.022949  +22-00+
      859    0.022175   -0.022175  02+2002
      473   -0.021029   -0.021029  20+20-+
       38    0.020801   -0.020801  2202+00
      177    0.020670   -0.020670  2+20200
      288   -0.020656   -0.020656  +-+2-+0

 ---------------------------------------
    -DIABATIC STATES IN PROTOTYPES-     
 ---------------------------------------

     STATE:    1
 Group Ref#    Coefficients
     1    1    0.898695
     2    2   -0.004072
     3    3    0.016203

WEIGHT OF LISTED PROTOTYPES:   80.79%

     STATE:    2
 Group Ref#    Coefficients
     1    1   -0.004189
     2    2    0.873745
     3    3   -0.004016

WEIGHT OF LISTED PROTOTYPES:   76.35%

     STATE:    3
 Group Ref#    Coefficients
     1    1    0.016467
     2    2   -0.003968
     3    3    0.884288

WEIGHT OF LISTED PROTOTYPES:   78.23%

     DIRECT MAX. DIABATIZATION FINISHED    
 CPU     0: STEP CPU TIME=     0.24 TOTAL CPU TIME=         16.6 (      0.3 MIN)
 TOTAL WALL CLOCK TIME=         16.6 SECONDS, CPU UTILIZATION IS    99.88%

DIABATS FOR SPIN-ORBIT CALCULATION ARE READY

TRANSITION DIPOLES BETWEEN ADIABATS (in A.U.):

STATE PAIR      X         Y         Z
    1    1 -0.263054  0.353938  0.589384
    2    1 -0.016269  0.083999 -0.210195
    2    2 -0.199548  0.445629  0.427747
    3    1 -0.151988 -0.056561 -0.038278
    3    2 -0.163751 -0.116877 -0.002281
    3    3 -0.404919  0.387027  0.363744


TRANSITION DIPOLES BETWEEN DIABATS (in A.U.):

STATE PAIR      X         Y         Z
    1    1 -0.223393  0.302096  0.736196
    2    1  0.022646 -0.010255 -0.002131
    2    2 -0.538780  0.315497  0.334523
    3    1 -0.007850 -0.003524 -0.002715
    3    2  0.102225  0.057792  0.043841
    3    3 -0.105348  0.569001  0.310155

TRANSITION DIPOLES BETWEEN DIRECT MAX. DIABATS (in A.U.):

STATE PAIR      X         Y         Z
    1    1 -0.223388  0.302096  0.736197
    2    1  0.022610 -0.010263 -0.002163
    2    2 -0.538789  0.315495  0.334521
    3    1 -0.007860 -0.003560 -0.002649
    3    2  0.102217  0.057783  0.043841
    3    3 -0.105345  0.569003  0.310156
 No $TRANST Group Found.
 Quit without doing spin-orbit coupling
 ..... DONE WITH MP2 ENERGY .....
 CPU     0: STEP CPU TIME=     0.01 TOTAL CPU TIME=         16.6 (      0.3 MIN)
 TOTAL WALL CLOCK TIME=         16.6 SECONDS, CPU UTILIZATION IS    99.94%
            100000000  WORDS OF DYNAMIC MEMORY USED
 EXECUTION OF GAMESS TERMINATED NORMALLY Wed Nov 16 20:22:45 2022
 DDI: 715512 bytes (0.7 MB / 0 MWords) used by master data server.

 ----------------------------------------
 CPU timing information for all processes
 ========================================
 0: 16.263 + 0.368 = 16.631
 ----------------------------------------
Note: The following floating-point exceptions are signalling: IEEE_DENORMAL
 ddikick.x: exited gracefully.
unset echo
----- accounting info -----
Files used on the master node io002 were:
-rw-r--r-- 1 bsonghao nooijen   20713 Nov 16 20:22 /scratch/bsonghao/nh3_diabatization_2d_at_mode_7_8_dist0.8_-0.6.F05
-rw-r--r-- 1 bsonghao nooijen  363520 Nov 16 20:22 /scratch/bsonghao/nh3_diabatization_2d_at_mode_7_8_dist0.8_-0.6.F09
-rw-r--r-- 1 bsonghao nooijen 1995920 Nov 16 20:22 /scratch/bsonghao/nh3_diabatization_2d_at_mode_7_8_dist0.8_-0.6.F10
-rw-r--r-- 1 bsonghao nooijen  131264 Nov 16 20:22 /scratch/bsonghao/nh3_diabatization_2d_at_mode_7_8_dist0.8_-0.6.F13
-rw-r--r-- 1 bsonghao nooijen  180312 Nov 16 20:22 /scratch/bsonghao/nh3_diabatization_2d_at_mode_7_8_dist0.8_-0.6.F15
-rw-r--r-- 1 bsonghao nooijen       0 Nov 16 20:22 /scratch/bsonghao/nh3_diabatization_2d_at_mode_7_8_dist0.8_-0.6.F16
-rw-r--r-- 1 bsonghao nooijen    9808 Nov 16 20:22 /scratch/bsonghao/nh3_diabatization_2d_at_mode_7_8_dist0.8_-0.6.F70
-rw-r--r-- 1 bsonghao nooijen    9808 Nov 16 20:22 /scratch/bsonghao/nh3_diabatization_2d_at_mode_7_8_dist0.8_-0.6.F71
-rw-r--r-- 1 bsonghao nooijen   19608 Nov 16 20:22 /scratch/bsonghao/nh3_diabatization_2d_at_mode_7_8_dist0.8_-0.6.F72
-rw-r--r-- 1 bsonghao nooijen   19608 Nov 16 20:22 /scratch/bsonghao/nh3_diabatization_2d_at_mode_7_8_dist0.8_-0.6.F73
-rw-r--r-- 1 bsonghao nooijen 1920824 Nov 16 20:22 /scratch/bsonghao/nh3_diabatization_2d_at_mode_7_8_dist0.8_-0.6.F74
-rw-r--r-- 1 bsonghao nooijen       0 Nov 16 20:22 /scratch/bsonghao/nh3_diabatization_2d_at_mode_7_8_dist0.8_-0.6.F75
-rw-r--r-- 1 bsonghao nooijen   58848 Nov 16 20:22 /scratch/bsonghao/nh3_diabatization_2d_at_mode_7_8_dist0.8_-0.6.F76
-rw-r--r-- 1 bsonghao nooijen       0 Nov 16 20:22 /scratch/bsonghao/nh3_diabatization_2d_at_mode_7_8_dist0.8_-0.6.F77
-rw-r--r-- 1 bsonghao nooijen    1864 Nov 16 20:22 /scratch/bsonghao/nh3_diabatization_2d_at_mode_7_8_dist0.8_-0.6.F78
-rw-r--r-- 1 bsonghao nooijen   39208 Nov 16 20:22 /scratch/bsonghao/nh3_diabatization_2d_at_mode_7_8_dist0.8_-0.6.F79
-rw-r--r-- 1 bsonghao nooijen     104 Nov 16 20:22 /scratch/bsonghao/nh3_diabatization_2d_at_mode_7_8_dist0.8_-0.6.F80
-rw-r--r-- 1 bsonghao nooijen   13472 Nov 16 20:22 /scratch/bsonghao/nh3_diabatization_2d_at_mode_7_8_dist0.8_-0.6.F81
-rw-r--r-- 1 bsonghao nooijen      16 Nov 16 20:22 /scratch/bsonghao/nh3_diabatization_2d_at_mode_7_8_dist0.8_-0.6.F82
-rw-r--r-- 1 bsonghao nooijen   19216 Nov 16 20:22 /scratch/bsonghao/nh3_diabatization_2d_at_mode_7_8_dist0.8_-0.6.F83
-rw-r--r-- 1 bsonghao nooijen   29712 Nov 16 20:22 /scratch/bsonghao/nh3_diabatization_2d_at_mode_7_8_dist0.8_-0.6.F84
-rw-r--r-- 1 bsonghao nooijen  401576 Nov 16 20:22 /scratch/bsonghao/nh3_diabatization_2d_at_mode_7_8_dist0.8_-0.6.F85
-rw-r--r-- 1 bsonghao nooijen  903672 Nov 16 20:22 /scratch/bsonghao/nh3_diabatization_2d_at_mode_7_8_dist0.8_-0.6.F86
-rw-r--r-- 1 bsonghao nooijen     656 Nov 16 20:22 /scratch/bsonghao/nh3_diabatization_2d_at_mode_7_8_dist0.8_-0.6.F87
-rw-r--r-- 1 bsonghao nooijen   44592 Nov 16 20:22 /scratch/bsonghao/nh3_diabatization_2d_at_mode_7_8_dist0.8_-0.6.F88
-rw-r--r-- 1 bsonghao nooijen     240 Nov 16 20:22 /scratch/bsonghao/nh3_diabatization_2d_at_mode_7_8_dist0.8_-0.6.F89
-rw-r--r-- 1 bsonghao nooijen       0 Nov 16 20:22 /scratch/bsonghao/nh3_diabatization_2d_at_mode_7_8_dist0.8_-0.6.F90
-rw-r--r-- 1 bsonghao nooijen   13760 Nov 16 20:22 /scratch/bsonghao/nh3_diabatization_2d_at_mode_7_8_dist0.8_-0.6.F91
-rw-r--r-- 1 bsonghao nooijen   22776 Nov 16 20:22 /scratch/bsonghao/nh3_diabatization_2d_at_mode_7_8_dist0.8_-0.6.F92
-rw-r--r-- 1 bsonghao nooijen   23168 Nov 16 20:22 /scratch/bsonghao/nh3_diabatization_2d_at_mode_7_8_dist0.8_-0.6.F93
-rw-r--r-- 1 bsonghao nooijen   22776 Nov 16 20:22 /scratch/bsonghao/nh3_diabatization_2d_at_mode_7_8_dist0.8_-0.6.F94
-rw-r--r-- 1 bsonghao nooijen   13760 Nov 16 20:22 /scratch/bsonghao/nh3_diabatization_2d_at_mode_7_8_dist0.8_-0.6.F95
-rw-r--r-- 1 bsonghao nooijen   29440 Nov 16 20:22 /scratch/bsonghao/nh3_diabatization_2d_at_mode_7_8_dist0.8_-0.6.F96
-rw-r--r-- 1 bsonghao nooijen    1184 Nov 16 20:22 /scratch/bsonghao/nh3_diabatization_2d_at_mode_7_8_dist0.8_-0.6.F97
-rw-r--r-- 1 bsonghao nooijen    9808 Nov 16 20:22 /scratch/bsonghao/nh3_diabatization_2d_at_mode_7_8_dist0.8_-0.6.F98
-rw-r--r-- 1 bsonghao nooijen   30264 Nov 16 20:22 /scratch/bsonghao/nh3_diabatization_2d_at_mode_7_8_dist0.8_-0.6.F99
ls: No match.
ls: No match.
ls: No match.
Wed 16 Nov 2022 08:22:48 PM EST
0.283u 0.045s 0:20.00 1.6%	0+0k 48+224io 0pf+0w
