----- GAMESS execution script 'rungms' -----
This job is running on host io002
under operating system Linux at Wed 16 Nov 2022 06:17:04 PM EST
Available scratch disk space (Kbyte units) at beginning of the job is
Filesystem       1K-blocks       Used   Available Use% Mounted on
/dev/sdc1      15378471580 3278917120 11318349060  23% /scratch
GAMESS temporary binary files will be written to /scratch/bsonghao
GAMESS supplementary output files will be written to /home/bsonghao/.gamess_ascii_files/267638
Copying input file nh3_diabatization_2d_at_mode_7_8_dist-0.8_-0.7.inp to your run's scratch directory...
cp nh3_diabatization_2d_at_mode_7_8_dist-0.8_-0.7.inp /scratch/bsonghao/nh3_diabatization_2d_at_mode_7_8_dist-0.8_-0.7.F05
unset echo
/home/bjb2chen/gamess/ddikick.x /home/bjb2chen/gamess/gamess.00.x nh3_diabatization_2d_at_mode_7_8_dist-0.8_-0.7 -ddi 1 1 io002 -scr /scratch/bsonghao

 Distributed Data Interface kickoff program.
 Initiating 1 compute processes on 1 nodes to run the following command:
 /home/bjb2chen/gamess/gamess.00.x nh3_diabatization_2d_at_mode_7_8_dist-0.8_-0.7 

          ******************************************************
          *         GAMESS VERSION = 02 AUG 2018 (R2)         *
          *             FROM IOWA STATE UNIVERSITY             *
          * M.W.SCHMIDT, K.K.BALDRIDGE, J.A.BOATZ, S.T.ELBERT, *
          *   M.S.GORDON, J.H.JENSEN, S.KOSEKI, N.MATSUNAGA,   *
          *          K.A.NGUYEN, S.J.SU, T.L.WINDUS,           *
          *       TOGETHER WITH M.DUPUIS, J.A.MONTGOMERY       *
          *         J.COMPUT.CHEM.  14, 1347-1363(1993)        *
          **************** 64 BIT LINUX VERSION ****************

  SINCE 1993, STUDENTS AND POSTDOCS WORKING AT IOWA STATE UNIVERSITY
  AND ALSO IN THEIR VARIOUS JOBS AFTER LEAVING ISU HAVE MADE IMPORTANT
  CONTRIBUTIONS TO THE CODE:
     IVANA ADAMOVIC, CHRISTINE AIKENS, YURI ALEXEEV, POOJA ARORA,
     ANDREY ASADCHEV, ROB BELL, PRADIPTA BANDYOPADHYAY, JONATHAN BENTZ,
     BRETT BODE, KURT BRORSEN, CALEB CARLIN, GALINA CHABAN, WEI CHEN,
     CHEOL HO CHOI, PAUL DAY, ALBERT DEFUSCO, NUWAN DESILVA, TIM DUDLEY,
     DMITRI FEDOROV, ALEX FINDLATER, GRAHAM FLETCHER, MARK FREITAG,
     KURT GLAESEMANN, ANASTASIA GUININA,
     DAN KEMP, GRANT MERRILL, NORIYUKI MINEZAWA, JONATHAN MULLIN,
     TAKESHI NAGATA, SEAN NEDD, HEATHER NETZLOFF, BOSILJKA NJEGIC, RYAN OLSON,
     MIKE PAK, BUU PHAM,
     SPENCER PRUITT, LUKE ROSKOP, JIM SHOEMAKER, LYUDMILA SLIPCHENKO,
     TONY SMITH, SAROM SOK LEANG, JIE SONG, TETSUYA TAKETSUGU, SIMON WEBB,
     PENG XU, SOOHAENG YOO, FEDERICO ZAHARIEV

  ADDITIONAL CODE HAS BEEN PROVIDED BY COLLABORATORS IN OTHER GROUPS:
     IOWA STATE UNIVERSITY:
          JOE IVANIC, AARON WEST, LAIMUTIS BYTAUTAS, KLAUS RUEDENBERG
     UNIVERSITY OF TOKYO: KIMIHIKO HIRAO, TAKAHITO NAKAJIMA,
          TAKAO TSUNEDA, MUNEAKI KAMIYA, SUSUMU YANAGISAWA,
          KIYOSHI YAGI, MAHITO CHIBA, SEIKEN TOKURA, NAOAKI KAWAKAMI
     UNIVERSITY OF AARHUS: FRANK JENSEN
     UNIVERSITY OF IOWA: VISVALDAS KAIRYS, HUI LI
     NATIONAL INST. OF STANDARDS AND TECHNOLOGY: WALT STEVENS, DAVID GARMER
     UNIVERSITY OF PISA: BENEDETTA MENNUCCI, JACOPO TOMASI
     UNIVERSITY OF MEMPHIS: HENRY KURTZ, PRAKASHAN KORAMBATH
     UNIVERSITY OF ALBERTA: TOBY ZENG, MARIUSZ KLOBUKOWSKI
     UNIVERSITY OF NEW ENGLAND: MARK SPACKMAN
     MIE UNIVERSITY: HIROAKI UMEDA
     NAT. INST. OF ADVANCED INDUSTRIAL SCIENCE AND TECHNOLOGY: KAZUO KITAURA
     MICHIGAN STATE UNIVERSITY:
          KAROL KOWALSKI, MARTA WLOCH, JEFFREY GOUR, JESSE LUTZ,
          WEI LI, JUN SHEN, J. EMILIANO DEUSTUA, PIOTR PIECUCH
     UNIVERSITY OF MINNESOTA:
          YINAN SHU
     UNIVERSITY OF SILESIA: MONIKA MUSIAL, STANISLAW KUCHARSKI
     FACULTES UNIVERSITAIRES NOTRE-DAME DE LA PAIX:
          OLIVIER QUINET, BENOIT CHAMPAGNE
     UNIVERSITY OF CALIFORNIA - SANTA BARBARA: BERNARD KIRTMAN
     INSTITUTE FOR MOLECULAR SCIENCE:
          KAZUYA ISHIMURA, MICHIO KATOUDA, AND SHIGERU NAGASE
     UNIVERSITY OF NOTRE DAME: ANNA POMOGAEVA, DAN CHIPMAN
     KYUSHU UNIVERSITY:
          HARUYUKI NAKANO,
          FENG LONG GU, JACEK KORCHOWIEC, MARCIN MAKOWSKI, AND YURIKO AOKI,
          HIROTOSHI MORI AND EISAKU MIYOSHI
     PENNSYLVANIA STATE UNIVERSITY:
          TZVETELIN IORDANOV, CHET SWALINA, JONATHAN SKONE,
          SHARON HAMMES-SCHIFFER
     WASEDA UNIVERSITY:
          MASATO KOBAYASHI, TOMOKO AKAMA, TSUGUKI TOUMA,
          TAKESHI YOSHIKAWA, YASUHIRO IKABATA, JUNJI SEINO,
          YUYA NAKAJIMA, HIROMI NAKAI
     NANJING UNIVERSITY: SHUHUA LI
     UNIVERSITY OF NEBRASKA:
          PEIFENG SU, DEJUN SI, NANDUN THELLAMUREGE, YALI WANG, HUI LI
     UNIVERSITY OF ZURICH: ROBERTO PEVERATI, KIM BALDRIDGE
     N. COPERNICUS UNIVERSITY AND JACKSON STATE UNIVERSITY:
          MARIA BARYSZ
     UNIVERSITY OF COPENHAGEN: Jimmy Kromann, CASPER STEINMANN
     TOKYO INSTITUTE OF TECHNOLOGY: HIROYA NAKATA
     NAGOYA UNIVERSITY: YOSHIO NISHIMOTO, STEPHAN IRLE
     MOSCOW STATE UNIVERSITY: VLADIMIR MIRONOV

 EXECUTION OF GAMESS BEGUN Wed Nov 16 18:17:04 2022

            ECHO OF THE FIRST FEW INPUT CARDS -
 INPUT CARD> $system kdiag=3 mwords=100 memddi=1000 parall=.t. $end                         
 INPUT CARD> $contrl runtyp=energy ispher=1 $end                                            
 INPUT CARD> $contrl icut=9 itol=20 inttyp=rysquad qmttol=1.0d-05 nosym=1 $end              
 INPUT CARD> $scf    npunch=2 conv=1.0d-06 dirscf=.t.      $end                             
 INPUT CARD> $contrl scftyp=mcscf  mult=2 maxit=200 icharg=1 mplevl=2 $end                  
 INPUT CARD> $guess  guess=moread norb=29 purify=.t. $end                                   
 INPUT CARD> $basis  gbasis=ccd $end                                                        
 INPUT CARD> $mcscf  cistep=gmcci fullnr=.t. finci=mos                                      
 INPUT CARD>         acurcy=1.d-6 maxit=100 $end                                            
 INPUT CARD> $trans  dirtrf=.t. $end                                                        
 INPUT CARD> $mrmp   mrpt=gmcpt rdvecs=.f. $end                                             
 INPUT CARD> $gmcpt  nmofzc=0 nmodoc=1 nmoact=7 nelact=7 stsym(1)=A                         
 INPUT CARD>         reftyp=ormas nspace=1 mstart(1)=2 mine(1)=7 maxe(1)=7                  
 INPUT CARD>         kstate(1)=1,1,1                                                        
 INPUT CARD>         wstate(1)=1,1,1                                                        
 INPUT CARD>         iwgt=0 thrwgt=-1.0 krot=.f. kszdoe=.f. knospn=.f.                      
 INPUT CARD>         thrde=-1.0 edshft=0.02 $end                                            
 INPUT CARD> $data                                                                          
 INPUT CARD> NH3+ 3 states calculation at NH3 structure.                                    
 INPUT CARD> c1                                                                             
 INPUT CARD>N 7.0 0.04360242600000001 0.04983122400000001 -0.1693803062                     
 INPUT CARD>H 1.0 -1.127420881 0.48417326280000006 0.1659633831                             
 INPUT CARD>H 1.0 -0.5160183309999999 -0.5927890298 0.5317351971000001                      
 INPUT CARD>H 1.0 1.037571834 -0.583805966 0.0716763151                                     
 INPUT CARD>$end                                                                            
 INPUT CARD>--- OPTIMIZED RHF      MO-S --- GENERATED AT Mon Nov 14 16:47:08 2022           
 INPUT CARD>E=      -56.3825050291, E(NUC)=   11.8429239490                                 
 INPUT CARD> $VEC                                                                           
 INPUT CARD> 1  1-1.00134066E+00-2.25158504E-03 3.44925845E-03 0.00000000E+00 0.00000000E+00
 INPUT CARD> 1  2-2.13170927E-03 0.00000000E+00 0.00000000E+00 6.57129898E-04-6.87950443E-05
 INPUT CARD> 1  3-6.87950443E-05 1.37590089E-04 0.00000000E+00 0.00000000E+00 0.00000000E+00
 INPUT CARD> 1  4 3.25502815E-04-4.84772356E-04 3.62525460E-04-6.27912517E-04-3.45956485E-04
 INPUT CARD> 1  5 3.25502815E-04-4.84772356E-04 3.62525460E-04 6.27912517E-04-3.45956485E-04
 INPUT CARD> 1  6 3.25502815E-04-4.84772356E-04-7.25050921E-04 0.00000000E+00-3.45956485E-04
 INPUT CARD> 2  1 1.31286642E-02-4.05911371E-01-2.82090992E-01 0.00000000E+00 0.00000000E+00
 INPUT CARD> 2  2-7.71489043E-02 0.00000000E+00 0.00000000E+00 9.73717494E-03 6.62450916E-04
 INPUT CARD> 2  3 6.62450916E-04-1.32490183E-03 0.00000000E+00 0.00000000E+00 0.00000000E+00
 INPUT CARD> 2  4-1.96090317E-01-1.96656153E-02-1.74855877E-02 3.02859263E-02 8.68214399E-03
 INPUT CARD> 2  5-1.96090317E-01-1.96656153E-02-1.74855877E-02-3.02859263E-02 8.68214399E-03
 INPUT CARD> 2  6-1.96090317E-01-1.96656153E-02 3.49711754E-02 0.00000000E+00 8.68214399E-03
 INPUT CARD> 3  1 0.00000000E+00 0.00000000E+00 0.00000000E+00 4.48608762E-01 0.00000000E+00
 INPUT CARD> 3  2 0.00000000E+00 2.18692520E-01 0.00000000E+00 0.00000000E+00 1.30198027E-02
 INPUT CARD> 3  3-1.30198027E-02 0.00000000E+00 0.00000000E+00 2.71832968E-02 0.00000000E+00
 INPUT CARD> 3  4-1.85332726E-01-7.03958951E-02 8.47929477E-03 1.95242443E-02 8.32835058E-03
 INPUT CARD> 3  5-1.85332726E-01-7.03958951E-02 8.47929477E-03-1.95242443E-02 8.32835058E-03
 INPUT CARD> 3  6 3.70665453E-01 1.40791790E-01-2.53376884E-02 0.00000000E+00-1.66567012E-02
 INPUT CARD> 4  1 0.00000000E+00 0.00000000E+00 0.00000000E+00 0.00000000E+00 4.48608762E-01
 INPUT CARD> 4  2 0.00000000E+00 0.00000000E+00 2.18692520E-01 0.00000000E+00 0.00000000E+00
 INPUT CARD> 4  3 0.00000000E+00 0.00000000E+00-1.50339731E-02 0.00000000E+00 2.71832968E-02
 INPUT CARD> 4  4 3.21005698E-01 1.21929267E-01 1.95242443E-02-1.40653607E-02-1.44251263E-02
  100000000 WORDS OF MEMORY AVAILABLE

     BASIS OPTIONS
     -------------
     GBASIS=CCD          IGAUSS=       0      POLAR=NONE    
     NDFUNC=       0     NFFUNC=       0     DIFFSP=       F
     NPFUNC=       0      DIFFS=       F     BASNAM=        


     RUN TITLE
     ---------
  NH3+ 3 states calculation at NH3 structure.                                    

 THE POINT GROUP OF THE MOLECULE IS C1      
 THE ORDER OF THE PRINCIPAL AXIS IS     0

 ATOM      ATOMIC                      COORDINATES (BOHR)
           CHARGE         X                   Y                   Z
 N           7.0     0.0823966375        0.0941673590       -0.3200823664
 H           1.0    -2.1305165379        0.9149547973        0.3136253181
 H           1.0    -0.9751332502       -1.1202088348        1.0048338205
 H           1.0     1.9607264588       -1.1032333057        0.1354485953

          INTERNUCLEAR DISTANCES (ANGS.)
          ------------------------------

                1 N          2 H          3 H          4 H     

   1 N       0.0000000    1.2932146 *  1.1034941 *  1.2031540 *
   2 H       1.2932146 *  0.0000000    1.2912977 *  2.4159187 *
   3 H       1.1034941 *  1.2912977 *  0.0000000    1.6203016 *
   4 H       1.2031540 *  2.4159187 *  1.6203016 *  0.0000000  

  * ... LESS THAN  3.000


     ATOMIC BASIS SET
     ----------------
 THE CONTRACTED PRIMITIVE FUNCTIONS HAVE BEEN UNNORMALIZED
 THE CONTRACTED BASIS FUNCTIONS ARE NOW NORMALIZED TO UNITY

  SHELL TYPE  PRIMITIVE        EXPONENT          CONTRACTION COEFFICIENT(S)

 N         

      1   S       1          9046.0000000    0.000699617413
      1   S       2          1357.0000000    0.005386054630
      1   S       3           309.3000000    0.027391021189
      1   S       4            87.7300000    0.103150591982
      1   S       5            28.5600000    0.278570663317
      1   S       6            10.2100000    0.448294849454
      1   S       7             3.8380000    0.278085928395
      1   S       8             0.7466000    0.015431561233

      2   S       9          9046.0000000   -0.000304990096
      2   S      10          1357.0000000   -0.002408026379
      2   S      11           309.3000000   -0.011944448725
      2   S      12            87.7300000   -0.048925992909
      2   S      13            28.5600000   -0.134472724725
      2   S      14            10.2100000   -0.315112577700
      2   S      15             3.8380000   -0.242857832550
      2   S      16             0.7466000    1.094382206854

      3   S      17             0.2248000    1.000000000000

      4   P      18            13.5500000    0.058905676772
      4   P      19             2.9170000    0.320461106714
      4   P      20             0.7973000    0.753042061792

      5   P      21             0.2185000    1.000000000000

      6   D      22             0.8170000    1.000000000000

 H         

      7   S      23            13.0100000    0.033498726390
      7   S      24             1.9620000    0.234800801174
      7   S      25             0.4446000    0.813682957883

      8   S      26             0.1220000    1.000000000000

      9   P      27             0.7270000    1.000000000000

 H         

     10   S      28            13.0100000    0.033498726390
     10   S      29             1.9620000    0.234800801174
     10   S      30             0.4446000    0.813682957883

     11   S      31             0.1220000    1.000000000000

     12   P      32             0.7270000    1.000000000000

 H         

     13   S      33            13.0100000    0.033498726390
     13   S      34             1.9620000    0.234800801174
     13   S      35             0.4446000    0.813682957883

     14   S      36             0.1220000    1.000000000000

     15   P      37             0.7270000    1.000000000000

 TOTAL NUMBER OF BASIS SET SHELLS             =   15
 NUMBER OF CARTESIAN GAUSSIAN BASIS FUNCTIONS =   30
 NOTE: THIS RUN WILL RESTRICT THE MO VARIATION SPACE TO SPHERICAL HARMONICS.
 THE NUMBER OF ORBITALS KEPT IN THE VARIATIONAL SPACE WILL BE PRINTED LATER.
 NUMBER OF ELECTRONS                          =    9
 CHARGE OF MOLECULE                           =    1
 SPIN MULTIPLICITY                            =    2
 NUMBER OF OCCUPIED ORBITALS (ALPHA)          =    5
 NUMBER OF OCCUPIED ORBITALS (BETA )          =    4
 TOTAL NUMBER OF ATOMS                        =    4
 THE NUCLEAR REPULSION ENERGY IS       10.2554029390

     $CONTRL OPTIONS
     ---------------
 SCFTYP=MCSCF        RUNTYP=ENERGY       EXETYP=RUN     
 MPLEVL=       2     CITYP =NONE         CCTYP =NONE         VBTYP =NONE    
 DFTTYP=NONE         TDDFT =NONE    
 MULT  =       2     ICHARG=       1     NZVAR =       0     COORD =UNIQUE  
 PP    =NONE         RELWFN=NONE         LOCAL =NONE         NUMGRD=       F
 ISPHER=       1     NOSYM =       1     MAXIT =     200     UNITS =ANGS    
 PLTORB=       F     MOLPLT=       F     AIMPAC=       F     FRIEND=        
 NPRINT=       7     IREST =       0     GEOM  =INPUT   
 NORMF =       0     NORMP =       0     ITOL  =      20     ICUT  =       9
 INTTYP=RYSQUAD      GRDTYP=BEST         QMTTOL= 1.0E-05

     $SYSTEM OPTIONS
     ---------------
  REPLICATED MEMORY=   100000000 WORDS (ON EVERY NODE).
 DISTRIBUTED MEMDDI=        1000 MILLION WORDS IN AGGREGATE,
 MEMDDI DISTRIBUTED OVER   1 PROCESSORS IS  1000000000 WORDS/PROCESSOR.
 TOTAL MEMORY REQUESTED ON EACH PROCESSOR=  1100000000 WORDS.
 TIMLIM=      525600.00 MINUTES, OR     365.0 DAYS.
 PARALL= T  BALTYP=  DLB     KDIAG=    3  COREFL= F
 MXSEQ2=     300 MXSEQ3=     150  mem10=         0

          ----------------
          PROPERTIES INPUT
          ----------------

     MOMENTS            FIELD           POTENTIAL          DENSITY
 IEMOM =       1   IEFLD =       0   IEPOT =       0   IEDEN =       0
 WHERE =COMASS     WHERE =NUCLEI     WHERE =NUCLEI     WHERE =NUCLEI  
 OUTPUT=BOTH       OUTPUT=BOTH       OUTPUT=BOTH       OUTPUT=BOTH    
 IEMINT=       0   IEFINT=       0                     IEDINT=       0
                                                       MORB  =       0

     -------------------------------
     INTEGRAL TRANSFORMATION OPTIONS
     -------------------------------
     NWORD  =            0
     CUTOFF = 1.0E-09     MPTRAN =       0
     DIRTRF =       T     AOINTS =DUP     

          ----------------------
          MCSCF INPUT PARAMETERS
          ----------------------
 CONVERGER SELECTION: FOCAS = F  SOSCF = F  FULLNR = T  QUD = F  JACOBI = F
 SECULAR EQUATION METHOD CISTEP = GMCCI   
 --- GENERAL INPUT OPTIONS:
 MAXIT =     100  MICIT =       1  ACURCY= 1.000E-06
 DAMP  =   0.000  CANONC=       T  ENGTOL= 1.000E-10
 EKT   =       F  NPUNCH=       2  NWORD =         0
 REGENERATE CI AFTER CONVERGENCE = NONE    
 DIABATIZATION AFTER CONVERGENCE =        F
 --- INPUT FOR FULLNR CONVERGER:
 METHOD=DM2       FORS  =       F  DROPC =       T
 LINSER=       F  FCORE =       F  NORB  =      30

          ----------------------
          INTEGRAL INPUT OPTIONS
          ----------------------
 NOPK  =       1 NORDER=       0 SCHWRZ=       T

 ------------------------------------------
 MULTIREFERENCE PERTURBATION THEORY CONTROL
 ------------------------------------------
 MRPT=GMCPT    READ CONVERGED MCSCF VECTORS= F


     ------------------------------------------
     THE POINT GROUP IS C1 , NAXIS= 1, ORDER= 1
     ------------------------------------------

 -- VARIATIONAL SPACE WILL BE RESTRICTED TO PURE SPHERICAL HARMONICS ONLY --
 AFTER EXCLUDING CONTAMINANT COMBINATIONS FROM THE CARTESIAN GAUSSIAN BASIS
 SET, THE NUMBER OF SPHERICAL HARMONICS KEPT IN THE VARIATION SPACE IS   29

     DIMENSIONS OF THE SYMMETRY SUBSPACES ARE
 A   =   29

 ..... DONE SETTING UP THE RUN .....
 CPU     0: STEP CPU TIME=     0.04 TOTAL CPU TIME=          0.0 (      0.0 MIN)
 TOTAL WALL CLOCK TIME=          0.0 SECONDS, CPU UTILIZATION IS   100.00%

          ********************
          1 ELECTRON INTEGRALS
          ********************
 TIME TO DO   DIPOLE INTEGRALS=      0.00
 ...... END OF ONE-ELECTRON INTEGRALS ......
 CPU     0: STEP CPU TIME=     0.00 TOTAL CPU TIME=          0.0 (      0.0 MIN)
 TOTAL WALL CLOCK TIME=          0.0 SECONDS, CPU UTILIZATION IS   100.00%

          -------------
          GUESS OPTIONS
          -------------
          GUESS =MOREAD            NORB  =      29          NORDER=       0
          MIX   =       F          PRTMO =       F          PUNMO =       F
          TOLZ  = 1.0E-08          TOLE  = 1.0E-05
          SYMDEN=       F          PURIFY=       T

 INITIAL GUESS ORBITALS GENERATED BY MOREAD   ROUTINE.

 STATISTICS FOR GENERATION OF SYMMETRY ORBITAL -Q- MATRIX
 NUMBER OF CARTESIAN ATOMIC ORBITALS=         30
 NUMBER OF SPHERICAL CONTAMINANTS DROPPED=     1
 NUMBER OF LINEARLY DEPENDENT MOS DROPPED=     0
 TOTAL NUMBER OF MOS IN VARIATION SPACE=      29
 ORBITAL PURIFICATION WILL OCCUR

 SYMMETRIES FOR INITIAL GUESS ORBITALS FOLLOW.   BOTH SET(S).
     5 ORBITALS ARE OCCUPIED (    1 CORE ORBITALS).
     1=A        2=A        3=A        4=A        5=A        6=A        7=A   
     8=A        9=A       10=A       11=A       12=A       13=A       14=A   
    15=A       16=A       17=A       18=A       19=A       20=A       21=A   
    22=A       23=A       24=A       25=A       26=A       27=A       28=A   
    29=A   
 ...... END OF INITIAL ORBITAL SELECTION ......
 CPU     0: STEP CPU TIME=     0.01 TOTAL CPU TIME=          0.0 (      0.0 MIN)
 TOTAL WALL CLOCK TIME=          0.1 SECONDS, CPU UTILIZATION IS   100.00%

                    ----------------------
                    AO INTEGRAL TECHNOLOGY
                    ----------------------
     S,P,L SHELL ROTATED AXIS INTEGRALS, REPROGRAMMED BY
        KAZUYA ISHIMURA (IMS) AND JOSE SIERRA (SYNSTAR).
     S,P,D,L SHELL ROTATED AXIS INTEGRALS PROGRAMMED BY
        KAZUYA ISHIMURA (INSTITUTE FOR MOLECULAR SCIENCE).
     S,P,D,F,G SHELL TO TOTAL QUARTET ANGULAR MOMENTUM SUM 5,
        ERIC PROGRAM BY GRAHAM FLETCHER (ELORET AND NASA ADVANCED
        SUPERCOMPUTING DIVISION, AMES RESEARCH CENTER).
     S,P,D,F,G,L SHELL GENERAL RYS QUADRATURE PROGRAMMED BY
        MICHEL DUPUIS (PACIFIC NORTHWEST NATIONAL LABORATORY).

          --------------------
          2 ELECTRON INTEGRALS
          --------------------

 DIRECT SCF METHOD SKIPS INTEGRAL STORAGE ON DISK.
 DIRECT TRANSFORMATION SKIPS AO INTEGRAL STORAGE ON DISK.
  ...... END OF TWO-ELECTRON INTEGRALS .....
 STEP CPU TIME =     0.02 TOTAL CPU TIME =          0.1 (      0.0 MIN)
 TOTAL WALL CLOCK TIME=          0.1 SECONDS, CPU UTILIZATION IS   100.00%
 DDI: Creating Array [0] - 900 x 36 = 32400 words.
 DDI: Creating Array [1] - 21 x 288 = 6048 words.
 DDI: Creating Array [2] - 36 x 36 = 1296 words.
 DDI: Creating Array [3] - 465 x 36 = 16740 words.

          -----------------
          MCSCF CALCULATION
          -----------------

 ----- NUCLEAR ENERGY ----- =        10.2554029390

     -------------------------------------------------
     GMC-PT/GMC-QDPT or general MCSCF input parameters
     -------------------------------------------------
 # of frozen core orbs. =         0 ->         0
 # of doubly occ. orbs. =         1
 # of active      orbs. =         7
 # of virtual     orbs. =        21
 # of active electrons  =         7
 # of states in CI      =         3
 Highest state in CI    =         3
 kstate =  1 1 1
 avecoe =  0.333 0.333 0.333
 State symmetry           = A           
 Assigned symmetry number = 1

 <<<Act. MO sym.: 1111111

 <<<Division of 1-ext.:  0
 <<<Division of 2-ext.:  0

 *** Reference space

 Reference type: ORMAS (= Occupation restricted multiple active space)
 # of orbitals          =  7
 # of minimum electrons =  7
 # of maximum electrons =  7
 State symmetry    =    1 (input)
 2*Sz              =    1 (input)
 Spin multiplicity =    2 (input)
 Dimension of reference space =      1225  (from      3432 walks)

 Dimension of reference space =      1225  (from      1225 walks)

 <<<Ionized spaces for Ref-CI:
      0:         1225 /   -1-0:         1960 /  0-1-0:         2891

 EVALUATING EXCHANGE INTEGRALS FOR DIRECT INTEGRAL TRANSFORMATION
 SCHWARZ INEQUALITY OVERHEAD:       465 INTEGRALS, T=        0.00

     --------------------------------------------
     PARTIAL TWO ELECTRON INTEGRAL TRANSFORMATION
     --------------------------------------------

 NUMBER OF CORE MOLECULAR ORBITALS     =    1
 NUMBER OF OCCUPIED MOLECULAR ORBITALS =    8
 TOTAL NUMBER OF MOLECULAR ORBITALS    =   29
 TOTAL NUMBER OF ATOMIC ORBITALS       =   30
 THRESHOLD FOR KEEPING TRANSFORMED 2E- INTEGRALS = 1.000E-09

 -------------------------------     ------------------------------
 DISTRIBUTED DATA TRANSFORMATION     PROGRAM WRITTEN BY G. FLETCHER
 -------------------------------     ------------------------------

 THE DISTRIBUTED MEMORY REQUIRED FOR THIS STEP IS MEMDDI=         1 MWORDS
 CREATING DISTRIBUTED STORAGE FOR [VIR OCC|VIR OCC] INTEGRALS
 CREATING DISTRIBUTED STORAGE FOR [VIR OCC|OCC OCC] INTEGRALS
 CREATING DISTRIBUTED STORAGE FOR [OCC OCC|OCC OCC] INTEGRALS
 CREATING DISTRIBUTED STORAGE FOR [VIR VIR|OCC OCC] INTEGRALS
 FOR    1 PROCESSORS, THE REPLICATED MEMORY NEEDED IS       73700 WORDS.
 SCHWARZ INEQUALITY OVERHEAD:       465 INTEGRALS, T=        0.00

      DIRECT 4-INDEX TRANSFORMATION 
      SCHWARZ INEQUALITY TEST SKIPPED          0 INTEGRAL BLOCKS
 ----- FROZEN CORE ENERGY =       -47.3889473483
 ... END OF INTEGRAL TRANSFORMATION ...
 CPU     0: STEP CPU TIME=     0.21 TOTAL CPU TIME=          0.3 (      0.0 MIN)
 TOTAL WALL CLOCK TIME=          0.3 SECONDS, CPU UTILIZATION IS    96.55%

     --------------------------------     -----------------------------
     MCHF NEWTON-RAPHSON OPTIMIZATION     CODE WRITTEN BY MICHEL DUPUIS
     --------------------------------     -----------------------------
     PARALLEL VERSION WRITTEN BY G. FLETCHER (ELORET)
     NASA ADVANCED SUPERCOMPUTING DIVISION, AMES RESEARCH CENTER

 NUMBER OF INDEPENDENT ORBITAL ROTATION PARAMETERS =   175
 ..... DONE SOLVING NEWTON-RAPHSON EQUATIONS .....
 CPU     0: STEP CPU TIME=     0.95 TOTAL CPU TIME=          1.2 (      0.0 MIN)
 TOTAL WALL CLOCK TIME=          1.2 SECONDS, CPU UTILIZATION IS    99.19%
 ..... DONE WITH NTN-RPH ORBITAL ROTATIONS ..... 
 CPU     0: STEP CPU TIME=     0.00 TOTAL CPU TIME=          1.2 (      0.0 MIN)
 TOTAL WALL CLOCK TIME=          1.2 SECONDS, CPU UTILIZATION IS    99.19%
 MAXIMUM MEMORY USED BY NTN-RPH CODE WAS     57645 WORDS.

 ITER     TOTAL ENERGY      DEL(E)  LAGRANGIAN ASYMMETRY   SQCDF  MICIT   DAMP
   1      -55.506264850 -0.506264850  0.157457   10    4 8.601E-02  1   0.0000
   2      -55.605842719 -0.099577869  0.023732   12    5 4.392E-01  1   0.0000
   3      -55.645432485 -0.039589766  0.021791   12    5 1.834E-01  1   0.0114
   4      -55.669577203 -0.024144718  0.014687   17    2 3.391E-02  1   0.0132
   5      -55.673788289 -0.004211086  0.001570   14    4 1.645E-03  1   0.0000
   6      -55.673944096 -0.000155806  0.000410   27    6 1.714E-04  1   0.0000
   7      -55.673961847 -0.000017752  0.000196   27    6 2.779E-05  1   0.0000
   8      -55.673964901 -0.000003053  0.000092   27    6 4.828E-06  1   0.0000
   9      -55.673965460 -0.000000559  0.000043   27    6 8.663E-07  1   0.0000
  10      -55.673965564 -0.000000105  0.000019   27    6 1.588E-07  1   0.0000
  11      -55.673965584 -0.000000020  0.000009   27    6 2.963E-08  1   0.0000
  12      -55.673965588 -0.000000004  0.000004   27    6 5.581E-09  1   0.0000
  13      -55.673965589 -0.000000001  0.000002   27    6 1.060E-09  1   0.0000
  14      -55.673965589 -0.000000000  0.000001   27    6 2.006E-10  1   0.0000

          --------------------
          LAGRANGIAN CONVERGED
          --------------------

 FINAL MCSCF ENERGY IS      -55.6739655888 AFTER  14 ITERATIONS

 -MCCI- BASED ON OPTIMIZED ORBITALS
 ----------------------------------

 PLEASE NOTE: IF THE ACTIVE ORBITALS ARE CANONICALIZED BELOW,
 THE FOLLOWING CI EXPANSION COEFFICIENTS AND THE DENSITY DO NOT
 CORRESPOND TO THE PRINTED ORBITALS.  THE PRINTED EXPANSIONS MATCH
 THE ORBITALS USED DURING THE LAST ITERATION.  IF YOU WISH TO SEE
 CI EXPANSIONS BASED ON THE CANONICAL (OR NATURAL) ORBITALS, YOU
 MUST RUN A CI CALCULATION WITH THAT ORBITAL CHOICE READ IN $VEC.

 Averaged energy =     -55.673965589

 State #    1  Energy =     -55.798964341  S =  0.500

      Det      Coef    Occupancy (Ignoring core)
      ---      ----    --------- --------- -----
        1   -0.770886  11110001110000
        2   -0.076952  11101001110000
        3    0.097623  11011001110000
        5    0.083697  01111001110000
        8    0.106258  10110101110000
       16   -0.085180  11100011110000
       17    0.184698  11010011110000
       36    0.427913  11110001101000
       37    0.052229  11101001101000
       38   -0.064036  11011001101000
       51    0.096660  11100011101000
       52   -0.098015  11010011101000
       71   -0.187403  11110001011000
      386   -0.068184  11110001010010
      393   -0.051549  10110101010010
      701   -0.088038  11110001100001
      717   -0.060633  11010011100001

 State #    2  Energy =     -55.657820884  S =  0.500

      Det      Coef    Occupancy (Ignoring core)
      ---      ----    --------- --------- -----
        1   -0.459614  11110001110000
        8    0.058124  10110101110000
       17    0.073128  11010011110000
       36   -0.742619  11110001101000
       37   -0.078929  11101001101000
       38    0.145942  11011001101000
       39   -0.088094  10111001101000
       40    0.071304  01111001101000
       41    0.061102  11100101101000
       43    0.073811  10110101101000
       51   -0.107797  11100011101000
       52    0.171665  11010011101000
       54    0.050681  01110011101000
       71    0.119091  11110001011000
      106   -0.062718  11110000111000
      122    0.055460  11010010111000
      141   -0.098598  11110001100100
      351    0.076318  11110001100010
      386   -0.054445  11110001010010
      463   -0.052611  10110101001010
      701   -0.180926  11110001100001

 State #    3  Energy =     -55.565111541  S =  0.500

      Det      Coef    Occupancy (Ignoring core)
      ---      ----    --------- --------- -----
        1    0.122410  11110001110000
        2   -0.442424  11101001110000
        3    0.318417  11011001110000
        4   -0.119428  10111001110000
        5    0.051725  01111001110000
       11    0.063047  10101101110000
       16   -0.282086  11100011110000
       17    0.175575  11010011110000
       18   -0.069204  10110011110000
       20    0.083413  11001011110000
       36   -0.248183  11110001101000
       37    0.405484  11101001101000
       38   -0.166300  11011001101000
       39    0.083038  10111001101000
       46   -0.053415  10101101101000
       51    0.270422  11100011101000
       52   -0.078920  11010011101000
       53    0.062114  10110011101000
       55   -0.066184  11001011101000
       72   -0.120708  11101001011000
       73    0.074446  11011001011000
       76    0.056538  11100101011000
       86   -0.059442  11100011011000
      107    0.113134  11101000111000
      121    0.079834  11100010111000
      141    0.087067  11110001100100
      211    0.061408  11110000110100
      212   -0.054420  11101000110100
      281   -0.051251  11110000101100
      282    0.051368  11101000101100
      386    0.058917  11110001010010
      387   -0.096709  11101001010010
      388    0.059177  11011001010010
      401   -0.054131  11100011010010
      456   -0.051131  11110001001010
      457    0.089694  11101001001010
      701    0.094848  11110001100001
      702   -0.090429  11101001100001

 DENSITY MATRIX OVER ACTIVE MO-S

             1           2           3           4           5

    1    1.9539527
    2   -0.0236997   1.8854733
    3   -0.0823960  -0.1419167   1.4038504
    4   -0.0525401  -0.1391207  -0.2785124   1.2379416
    5    0.1269267   0.0506271   0.0671550  -0.0110803   0.2820467
    6   -0.0056679  -0.1843148  -0.0368192  -0.0450030  -0.0246871
    7    0.0217530  -0.0070869   0.2128201   0.0328303   0.1740557

             6           7

    6    0.0625827
    7   -0.0215233   0.1741526

 FORMING THE "STANDARD FOCK OPERATOR" IN DIRECT AO INTEGRAL MODE...
 ONLY THE    1 CORE AND   21 VIRTUAL ORBITALS WILL BE CANONICALIZED

          ----------------------
          MCSCF NATURAL ORBITALS
          ----------------------

                      1          2          3          4          5
                  -16.0309     1.9745     1.9481     1.6272     1.0239
                     A          A          A          A          A   
    1  N  1  S    1.000804   0.015994   0.002187   0.011099  -0.003569
    2  N  1  S   -0.002751   0.447984   0.023634   0.206720  -0.047184
    3  N  1  S   -0.006712   0.355717   0.052669   0.291000  -0.081823
    4  N  1  X   -0.001102  -0.008588   0.448150   0.053982   0.201938
    5  N  1  Y    0.000004  -0.089610  -0.131387   0.399119   0.374270
    6  N  1  Z    0.000571   0.075637  -0.060149  -0.344567   0.479162
    7  N  1  X   -0.000272   0.004208   0.208753   0.012778   0.138426
    8  N  1  Y    0.000493  -0.026481  -0.069554   0.208051   0.254442
    9  N  1  Z   -0.000521   0.016687  -0.019226  -0.180422   0.341129
   10  N  1 XX    0.000109   0.003230  -0.003900   0.011264  -0.002281
   11  N  1 YY   -0.000041  -0.001158   0.006009  -0.004275  -0.010430
   12  N  1 ZZ   -0.000068  -0.002073  -0.002109  -0.006989   0.012711
   13  N  1 XY    0.000023  -0.002347  -0.009968  -0.011884  -0.012291
   14  N  1 XZ   -0.000196  -0.002498   0.016019   0.007805  -0.001070
   15  N  1 YZ   -0.000270  -0.003984  -0.002008   0.020116   0.006301
   16  H  2  S   -0.000308   0.102298  -0.273547   0.080901   0.124144
   17  H  2  S    0.000345   0.002216  -0.062660   0.053661   0.079040
   18  H  2  X   -0.000299   0.016289  -0.028143   0.010848   0.013270
   19  H  2  Y    0.000087  -0.008283   0.019007   0.007146   0.007544
   20  H  2  Z    0.000128  -0.003017   0.002620  -0.011175   0.014128
   21  H  3  S   -0.001463   0.214903  -0.160538  -0.334884  -0.043333
   22  H  3  S    0.000418   0.005337  -0.022255  -0.103023  -0.025216
   23  H  3  X   -0.000518   0.020439   0.013183  -0.021175   0.003554
   24  H  3  Y   -0.000567   0.022076  -0.022587  -0.013356   0.015567
   25  H  3  Z    0.000610  -0.023350   0.011048   0.015157   0.025091
   26  H  4  S   -0.001651   0.162294   0.295552  -0.054319   0.076597
   27  H  4  S    0.000312   0.011323   0.063147   0.000531   0.041299
   28  H  4  X    0.000496  -0.026334  -0.028529   0.015161   0.001284
   29  H  4  Y   -0.000303   0.011934   0.017942   0.006485   0.013770
   30  H  4  Z    0.000129  -0.002242  -0.006277  -0.010296   0.012813

                      6          7          8
                    0.3612     0.0370     0.0282
                     A          A          A   
    1  N  1  S   -0.042400   0.048442  -0.079111
    2  N  1  S   -0.304254   0.142720  -0.303333
    3  N  1  S   -0.440653  -0.053801  -0.191336
    4  N  1  X    0.081288   0.807443   0.152730
    5  N  1  Y   -0.133148  -0.243320   0.624102
    6  N  1  Z   -0.167510  -0.088793  -0.511301
    7  N  1  X    0.041410   0.083136   0.033116
    8  N  1  Y   -0.088566  -0.032680  -0.010449
    9  N  1  Z   -0.083171  -0.018208   0.002458
   10  N  1 XX    0.037279   0.010076  -0.016452
   11  N  1 YY   -0.012254  -0.010831  -0.002084
   12  N  1 ZZ   -0.025025   0.000755   0.018536
   13  N  1 XY   -0.041508   0.010644   0.019911
   14  N  1 XZ   -0.001602  -0.015853  -0.011384
   15  N  1 YZ   -0.000842   0.008795  -0.018554
   16  H  2  S    0.578183   0.325246  -0.132322
   17  H  2  S    0.503838   0.096773  -0.116419
   18  H  2  X    0.001558   0.000196  -0.011432
   19  H  2  Y   -0.009018  -0.023142  -0.017995
   20  H  2  Z    0.003121   0.020409   0.017094
   21  H  3  S   -0.112832   0.212420   0.796659
   22  H  3  S   -0.098660   0.059607   0.221231
   23  H  3  X   -0.028107  -0.032621   0.030608
   24  H  3  Y    0.000420   0.026493   0.029697
   25  H  3  Z    0.011892  -0.006224  -0.026777
   26  H  4  S    0.386351  -0.619604   0.173062
   27  H  4  S    0.273374  -0.196250   0.012929
   28  H  4  X   -0.004322   0.035880  -0.023934
   29  H  4  Y    0.003844  -0.012638  -0.008933
   30  H  4  Z   -0.008826  -0.007864   0.017675

          ------------------------
          MCSCF OPTIMIZED ORBITALS
          ------------------------

                      1          2          3          4          5
                  -16.0309     0.0000     0.0000     0.0000     0.0000
                     A          A          A          A          A   
    1  N  1  S    1.000804   0.010613  -0.004149   0.003378  -0.011958
    2  N  1  S   -0.002751   0.419577   0.017590   0.045175  -0.193105
    3  N  1  S   -0.006712   0.322003   0.056691   0.065567  -0.278676
    4  N  1  X   -0.001102  -0.012107   0.396219   0.037930   0.034905
    5  N  1  Y    0.000004  -0.019400  -0.005688   0.458410   0.039657
    6  N  1  Z    0.000571   0.065093   0.004556   0.013209   0.605434
    7  N  1  X   -0.000272   0.006429   0.223395   0.044638   0.076413
    8  N  1  Y    0.000493   0.005317  -0.001690   0.299172   0.079151
    9  N  1  Z   -0.000521   0.023281   0.026805   0.024799   0.371052
   10  N  1 XX    0.000109   0.006917  -0.001931   0.016863  -0.004529
   11  N  1 YY   -0.000041  -0.003659   0.003860  -0.011726  -0.006645
   12  N  1 ZZ   -0.000068  -0.003258  -0.001929  -0.005136   0.011173
   13  N  1 XY    0.000023  -0.006776  -0.016749  -0.024400  -0.006801
   14  N  1 XZ   -0.000196  -0.003229   0.017613   0.004260  -0.005765
   15  N  1 YZ   -0.000270  -0.002352   0.000129   0.021638  -0.006183
   16  H  2  S   -0.000308   0.178658  -0.231678   0.287598   0.116265
   17  H  2  S    0.000345   0.056636  -0.021899   0.205332   0.082372
   18  H  2  X   -0.000299   0.019560  -0.023067   0.020447   0.007261
   19  H  2  Y    0.000087  -0.009253   0.022269   0.007977   0.001375
   20  H  2  Z    0.000128  -0.002414   0.002009  -0.003342   0.015804
   21  H  3  S   -0.001463   0.199314  -0.220557  -0.400665   0.109756
   22  H  3  S    0.000418  -0.007321  -0.048741  -0.136816   0.019380
   23  H  3  X   -0.000518   0.016498   0.013860  -0.027809   0.010958
   24  H  3  Y   -0.000567   0.023882  -0.022365  -0.004788   0.018894
   25  H  3  Z    0.000610  -0.020203   0.017572   0.031579   0.013130
   26  H  4  S   -0.001651   0.185014   0.387779  -0.002892   0.113679
   27  H  4  S    0.000312   0.035693   0.105559   0.067504   0.058860
   28  H  4  X    0.000496  -0.024141  -0.030782   0.022085  -0.005158
   29  H  4  Y   -0.000303   0.012449   0.022609   0.009587   0.006239
   30  H  4  Z    0.000129  -0.001963  -0.004442  -0.003282   0.015598

                      6          7          8          9         10
                    0.0000     0.0000     0.0000     0.1988     0.2389
                     A          A          A          A          A   
    1  N  1  S    0.080726   0.041387  -0.047808   0.101385   0.022416
    2  N  1  S    0.460338   0.122727  -0.092203   0.182401   0.025059
    3  N  1  S    0.503417  -0.055737   0.094708  -0.990468  -0.240652
    4  N  1  X   -0.106499   0.868871   0.020795  -0.066942   0.175555
    5  N  1  Y   -0.178855  -0.142542   0.725724  -0.132341  -0.114176
    6  N  1  Z    0.451603  -0.094207  -0.266893   0.158747   0.020166
    7  N  1  X   -0.031259   0.116491   0.017839   0.165218  -0.717918
    8  N  1  Y    0.117253  -0.007793   0.113918   0.459725   0.335587
    9  N  1  Z    0.092427   0.014956   0.092209  -0.405422  -0.000807
   10  N  1 XX   -0.020645   0.006768  -0.033033  -0.043009  -0.008864
   11  N  1 YY    0.009615  -0.011089   0.003307   0.018841  -0.012967
   12  N  1 ZZ    0.011030   0.004321   0.029726   0.024168   0.021832
   13  N  1 XY    0.020705   0.011420   0.033206   0.002137   0.055299
   14  N  1 XZ    0.007872  -0.015272  -0.006416   0.062028  -0.060189
   15  N  1 YZ    0.012838   0.007631  -0.012311   0.071996   0.015808
   16  H  2  S   -0.374279   0.279613  -0.405891  -0.359375   0.318277
   17  H  2  S   -0.335964   0.071553  -0.345260   0.025392  -0.788069
   18  H  2  X    0.007941  -0.001884  -0.005673   0.033048  -0.058164
   19  H  2  Y    0.018037  -0.021770  -0.005677   0.040130  -0.003462
   20  H  2  Z   -0.011091   0.023164   0.011338  -0.035126   0.044695
   21  H  3  S   -0.359641   0.267989   0.645282  -0.483998   0.193125
   22  H  3  S   -0.050263   0.077397   0.209674   1.708540  -0.562549
   23  H  3  X    0.006248  -0.026998   0.041447   0.119283  -0.022957
   24  H  3  Y   -0.014374   0.028465   0.023128   0.051292   0.002359
   25  H  3  Z    0.007276  -0.005475  -0.021313  -0.092390   0.015702
   26  H  4  S   -0.400717  -0.572122   0.014238  -0.323667  -0.622805
   27  H  4  S   -0.227862  -0.190872  -0.102199   0.307557   1.795188
   28  H  4  X    0.016161   0.030895  -0.018906  -0.068140  -0.074058
   29  H  4  Y    0.004688  -0.010329  -0.004964   0.018484   0.067492
   30  H  4  Z   -0.002205  -0.005171   0.021389   0.012333  -0.043659

                     11         12         13         14         15
                    0.2862     0.5990     0.6104     0.7359     0.8832
                     A          A          A          A          A   
    1  N  1  S   -0.004968   0.037065  -0.016114  -0.194368  -0.245184
    2  N  1  S   -0.029374   0.199717  -0.050297  -0.496472  -0.542583
    3  N  1  S   -0.159406   0.293384   0.004606   0.477120   0.901887
    4  N  1  X   -0.093755   0.185443  -0.373614   0.284329  -0.272313
    5  N  1  Y   -0.032332   0.136768  -0.609019  -0.371892   0.174046
    6  N  1  Z    0.038295  -0.554886  -0.588133   0.114195   0.065321
    7  N  1  X    0.236852  -0.860925   0.672024  -0.980831   0.816367
    8  N  1  Y   -0.187196  -0.509282   0.749774   0.987772  -0.548208
    9  N  1  Z    0.021958   1.111059   0.469834  -0.257035  -0.095154
   10  N  1 XX   -0.065465  -0.068553   0.016319  -0.045427  -0.169631
   11  N  1 YY    0.024306   0.039957  -0.016591   0.068979   0.104572
   12  N  1 ZZ    0.041159   0.028596   0.000272  -0.023552   0.065060
   13  N  1 XY    0.074382  -0.000752  -0.007386  -0.044293  -0.121571
   14  N  1 XZ   -0.005449   0.048342  -0.020246   0.076711  -0.110479
   15  N  1 YZ   -0.039512   0.004376   0.005368  -0.114673   0.034302
   16  H  2  S   -0.761679  -0.375628   0.135925  -0.203449   0.463240
   17  H  2  S    1.837004   0.314937  -0.240661  -0.640519   0.012283
   18  H  2  X    0.039425  -0.071087   0.030908  -0.122045   0.136485
   19  H  2  Y   -0.027002   0.145976   0.002035   0.212598   0.332051
   20  H  2  Z    0.002352  -0.020687   0.085037  -0.166001   0.172926
   21  H  3  S    0.548238  -0.665705   0.173946   0.291010  -0.016274
   22  H  3  S   -1.619639  -0.653718   0.354588   0.109277  -0.108070
   23  H  3  X    0.027966   0.071317  -0.009495   0.232516   0.298317
   24  H  3  Y   -0.053823  -0.168636   0.072181  -0.234730  -0.038758
   25  H  3  Z    0.022853   0.103398  -0.012300   0.026346   0.194455
   26  H  4  S   -0.345755  -0.170927  -0.032435   0.577048  -0.495468
   27  H  4  S    0.622437   0.487760  -0.267496   0.040370  -0.407039
   28  H  4  X    0.004187  -0.098835   0.062477  -0.200254  -0.096569
   29  H  4  Y   -0.003520  -0.053427   0.018008  -0.030940  -0.329729
   30  H  4  Z    0.012453   0.100670   0.001814   0.158540  -0.073521

                     16         17         18         19         20
                    0.9995     1.0478     1.1063     1.2511     1.3364
                     A          A          A          A          A   
    1  N  1  S   -0.364279  -0.590917  -0.150826  -0.004383   0.149820
    2  N  1  S   -0.777000  -1.269813  -0.324696  -0.014256   0.339343
    3  N  1  S    1.427913   2.241779   0.599455   0.087040  -0.462972
    4  N  1  X   -0.267230   0.193746   0.136976  -0.030307   0.048643
    5  N  1  Y    0.153735  -0.098493  -0.086437   0.011542   0.044815
    6  N  1  Z   -0.018603   0.029749  -0.015051   0.006054   0.119237
    7  N  1  X    0.782882  -0.703099  -0.366999  -0.192171  -0.146171
    8  N  1  Y   -0.584122  -0.304039   0.142882  -0.375773  -0.027888
    9  N  1  Z    0.382037   0.326339   0.451275   0.147961  -0.424579
   10  N  1 XX    0.091080  -0.057375  -0.018812   0.119223  -0.058577
   11  N  1 YY    0.004188  -0.125301   0.255491  -0.166300   0.025507
   12  N  1 ZZ   -0.095268   0.182676  -0.236679   0.047077   0.033069
   13  N  1 XY    0.164241   0.050907   0.037955  -0.063854   0.054343
   14  N  1 XZ    0.139266   0.049672  -0.106300   0.009748   0.002024
   15  N  1 YZ    0.019136   0.148017   0.186904   0.091855  -0.002782
   16  H  2  S    0.335818  -0.498807  -0.310532  -0.079301   0.119590
   17  H  2  S   -0.001194  -0.212032  -0.069223   0.080218  -0.095962
   18  H  2  X   -0.234027  -0.044350   0.151087   0.236503   0.157946
   19  H  2  Y   -0.066768  -0.099240   0.162108   0.397800   0.421727
   20  H  2  Z   -0.284946   0.289962   0.107968  -0.300597   0.630746
   21  H  3  S   -0.246439  -0.583458  -0.167244  -0.003160   0.139498
   22  H  3  S   -0.219925  -0.392463  -0.117492  -0.120801   0.134379
   23  H  3  X   -0.068128  -0.227302  -0.347208   0.040522  -0.032641
   24  H  3  Y   -0.327582   0.209641  -0.328271  -0.114139  -0.135653
   25  H  3  Z   -0.280858   0.283471  -0.366252   0.351973  -0.250470
   26  H  4  S   -0.613552  -0.065091   0.078018  -0.100393   0.207394
   27  H  4  S   -0.398974  -0.165610   0.015070   0.051887  -0.001501
   28  H  4  X    0.150076   0.167215   0.060019   0.308283   0.224908
   29  H  4  Y    0.144343   0.054709  -0.173813   0.583561   0.310591
   30  H  4  Z    0.249892   0.077203  -0.492710  -0.313916   0.478131

                     21         22         23         24         25
                    1.5180     1.7135     1.7526     1.9902     2.0524
                     A          A          A          A          A   
    1  N  1  S   -0.046618   0.055866  -0.170796  -0.094367   0.005257
    2  N  1  S   -0.215447   0.150969  -0.424114  -0.214406   0.013805
    3  N  1  S   -0.430246   0.071429   0.001332   0.027588   0.009985
    4  N  1  X   -0.004502   0.197093   0.371519  -0.084140  -0.000649
    5  N  1  Y    0.093481  -0.136485   0.155338   0.194037  -0.035331
    6  N  1  Z   -0.095845   0.031672  -0.271637  -0.113821  -0.005450
    7  N  1  X    0.397892   0.765889  -0.221832  -0.143156   0.049323
    8  N  1  Y   -0.213837  -0.332594   0.013017   0.026900   0.211387
    9  N  1  Z   -0.140349  -0.040667   0.087294   0.104517   0.230705
   10  N  1 XX    0.147359  -0.005992   0.094604   0.184456  -0.153631
   11  N  1 YY   -0.028289  -0.084661  -0.051220  -0.293083  -0.707464
   12  N  1 ZZ   -0.119070   0.090653  -0.043384   0.108627   0.861095
   13  N  1 XY   -0.156061   0.075536   0.091192   0.238791  -0.367066
   14  N  1 XZ   -0.065708  -0.177266  -0.189768   0.162919  -0.077570
   15  N  1 YZ   -0.070676   0.177844  -0.173715  -0.217322  -0.087007
   16  H  2  S    0.001286   0.169740  -0.116232  -0.168104  -0.005941
   17  H  2  S    0.527630   0.213772  -0.010720  -0.357898   0.020986
   18  H  2  X    0.747281   0.357616   0.218906  -0.292973  -0.009097
   19  H  2  Y   -0.136259   0.255393  -0.104987   0.785270  -0.124209
   20  H  2  Z   -0.086830  -0.570053  -0.036727  -0.108478  -0.004200
   21  H  3  S    0.083456   0.089872  -0.233065   0.049680  -0.016668
   22  H  3  S   -0.223464   0.143075   0.446525   0.313514  -0.030196
   23  H  3  X   -0.113446  -0.259343   0.758798  -0.357208  -0.118461
   24  H  3  Y    0.043394   0.188513   0.332893   0.648078  -0.507106
   25  H  3  Z   -0.149866  -0.013984  -0.522858  -0.326666  -0.500999
   26  H  4  S   -0.259382  -0.184566   0.105145   0.051879   0.004176
   27  H  4  S    0.231802  -0.498326  -0.203954   0.100865   0.002796
   28  H  4  X   -0.568275   0.488073   0.335647  -0.415409  -0.016673
   29  H  4  Y    0.188526  -0.567316   0.085550  -0.016181  -0.127820
   30  H  4  Z    0.324788   0.485163  -0.164770  -0.242247  -0.173361

                     26         27         28         29
                    2.0881     2.3462     2.6024     2.9824
                     A          A          A          A   
    1  N  1  S    0.072665  -0.053296  -0.284939   0.199107
    2  N  1  S    0.161393  -0.078885  -0.412188   0.327158
    3  N  1  S   -0.073647   0.501092   2.303564  -0.894400
    4  N  1  X    0.041718   0.105323  -0.155189  -0.185705
    5  N  1  Y   -0.115124  -0.069256  -0.209918  -0.082314
    6  N  1  Z    0.085333   0.022523   0.250056   0.077484
    7  N  1  X    0.140140   0.914857  -0.675633  -0.349461
    8  N  1  Y    0.040349  -0.721035  -0.649272  -0.018237
    9  N  1  Z   -0.098554   0.212820   0.821001   0.031516
   10  N  1 XX    0.650521  -0.360761   0.388780  -0.834358
   11  N  1 YY   -0.526619   0.351897  -0.137455   0.227472
   12  N  1 ZZ   -0.123902   0.008864  -0.251324   0.606886
   13  N  1 XY    0.453629  -0.252351   0.045340   1.101614
   14  N  1 XZ    0.407804   0.684908  -0.798464  -0.271587
   15  N  1 YZ   -0.039266  -0.715301  -0.848394  -0.259262
   16  H  2  S    0.137239   0.380934  -0.518102   0.452674
   17  H  2  S    0.204650   0.298334  -0.088799   0.174151
   18  H  2  X    0.373387   0.504461  -0.396246   0.636837
   19  H  2  Y   -0.110749  -0.088037   0.131635  -0.253405
   20  H  2  Z    0.288002  -0.089092   0.153610  -0.217515
   21  H  3  S    0.009644  -0.209926  -1.349305  -0.570902
   22  H  3  S   -0.157984  -0.090819  -0.574439  -0.154662
   23  H  3  X    0.279575  -0.396869  -0.582422  -0.246838
   24  H  3  Y   -0.384524   0.133629  -0.611267  -0.443506
   25  H  3  Z    0.259828   0.022380   0.679621   0.431823
   26  H  4  S   -0.039701  -0.681419  -0.406399   0.743397
   27  H  4  S   -0.072146  -0.361845  -0.033886   0.285899
   28  H  4  X    0.008115   0.648759   0.293839  -0.669029
   29  H  4  Y   -0.492474  -0.229603  -0.099248   0.494322
   30  H  4  Z   -0.113402  -0.142845   0.065460  -0.269279
 .....DONE WITH MCSCF ITERATIONS.....
 CPU     0: STEP CPU TIME=    10.26 TOTAL CPU TIME=         11.5 (      0.2 MIN)
 TOTAL WALL CLOCK TIME=         11.5 SECONDS, CPU UTILIZATION IS   100.00%

     ----------------------------------------------------------------
     PROPERTY VALUES FOR THE MCSCF SELF-CONSISTENT FIELD WAVEFUNCTION
     ----------------------------------------------------------------

          -----------------
          ENERGY COMPONENTS
          -----------------

         WAVEFUNCTION NORMALIZATION =       1.0000000000

                ONE ELECTRON ENERGY =     -92.0624606957
                TWO ELECTRON ENERGY =      26.1330921679
           NUCLEAR REPULSION ENERGY =      10.2554029390
                                      ------------------
                       TOTAL ENERGY =     -55.6739655888

 ELECTRON-ELECTRON POTENTIAL ENERGY =      26.1330921679
  NUCLEUS-ELECTRON POTENTIAL ENERGY =    -147.5808712829
   NUCLEUS-NUCLEUS POTENTIAL ENERGY =      10.2554029390
                                      ------------------
             TOTAL POTENTIAL ENERGY =    -111.1923761760
               TOTAL KINETIC ENERGY =      55.5184105872
                 VIRIAL RATIO (V/T) =       2.0028018634

          ---------------------------------------
          MULLIKEN AND LOWDIN POPULATION ANALYSES
          ---------------------------------------

     ATOMIC MULLIKEN POPULATION IN EACH MOLECULAR ORBITAL

                      1          2          3          4          5

                  2.000000   1.974465   1.948086   1.627170   1.023935

    1             2.000293   1.438992   1.091723   1.272595   0.963366
    2             0.000007   0.081557   0.359047   0.037405   0.035273
    3            -0.000199   0.280069   0.115304   0.303973   0.010110
    4            -0.000101   0.173846   0.382011   0.013196   0.015187

                      6          7          8

                  0.361181   0.037004   0.028160

    1             0.055183   0.019138   0.013809
    2             0.219221   0.003648   0.000359
    3            -0.003596   0.001473   0.013390
    4             0.090372   0.012744   0.000601
 WARNING! MCSCF POPULATIONS SHOWN ABOVE ARE FOR THE NATURAL ORBITALS.
 IGNORE THE ABOVE DATA FOR MCSCF FUNCTIONS WHICH ARE NOT OF -FORS- TYPE.
 THE FOLLOWING POPULATIONS ARE CORRECT FOR ANY MCSCF WAVEFUNCTION.

               ----- POPULATIONS IN EACH AO -----
                             MULLIKEN      LOWDIN
              1  N  1  S      2.00186     1.90919
              2  N  1  S      0.87169     0.62817
              3  N  1  S      0.75206     0.44833
              4  N  1  X      0.72096     0.63458
              5  N  1  Y      0.68787     0.63518
              6  N  1  Z      0.66591     0.62502
              7  N  1  X      0.37496     0.47672
              8  N  1  Y      0.37978     0.43755
              9  N  1  Z      0.37991     0.42620
             10  N  1 XX      0.00178     0.18178
             11  N  1 YY      0.00291     0.16731
             12  N  1 ZZ      0.00712     0.16404
             13  N  1 XY      0.00434     0.01543
             14  N  1 XZ      0.00395     0.00826
             15  N  1 YZ      0.00000     0.00724
             16  H  2  S      0.53582     0.43636
             17  H  2  S      0.16509     0.22647
             18  H  2  X      0.02113     0.04598
             19  H  2  Y      0.00930     0.02255
             20  H  2  Z      0.00518     0.01349
             21  H  3  S      0.61762     0.48157
             22  H  3  S      0.04225     0.15671
             23  H  3  X      0.01991     0.03906
             24  H  3  Y      0.02132     0.04202
             25  H  3  Z      0.01942     0.03751
             26  H  4  S      0.55117     0.45349
             27  H  4  S      0.09443     0.19551
             28  H  4  X      0.02564     0.04631
             29  H  4  Y      0.01129     0.02462
             30  H  4  Z      0.00533     0.01335

          ----- MULLIKEN ATOMIC OVERLAP POPULATIONS -----
          (OFF-DIAGONAL ELEMENTS NEED TO BE MULTIPLIED BY 2)

             1           2           3           4

    1    6.2692275
    2    0.0878563   0.6492101
    3    0.2715736  -0.0176538   0.4851300
    4    0.2264421   0.0171062  -0.0185252   0.4628341

          TOTAL MULLIKEN AND LOWDIN ATOMIC POPULATIONS
       ATOM         MULL.POP.    CHARGE          LOW.POP.     CHARGE
    1 N             6.855100    0.144900         6.765002    0.234998
    2 H             0.736519    0.263481         0.744857    0.255143
    3 H             0.720524    0.279476         0.756865    0.243135
    4 H             0.687857    0.312143         0.733276    0.266724

          MULLIKEN SPHERICAL HARMONIC POPULATIONS
       ATOM           S       P       D      F      G      H      I    TOTAL
    1 N             3.63    3.21    0.02   0.00   0.00   0.00   0.00    6.86
    2 H             0.70    0.04    0.00   0.00   0.00   0.00   0.00    0.74
    3 H             0.66    0.06    0.00   0.00   0.00   0.00   0.00    0.72
    4 H             0.65    0.04    0.00   0.00   0.00   0.00   0.00    0.69

          ---------------------
          ELECTROSTATIC MOMENTS
          ---------------------

 POINT   1           X           Y           Z (BOHR)    CHARGE
                -0.000004   -0.000006   -0.177185        1.00 (A.U.)
         DX          DY          DZ         /D/  (DEBYE)
    -0.662097   -1.357955    1.731970    2.298289
 ...... END OF PROPERTY EVALUATION ......
 CPU     0: STEP CPU TIME=     0.01 TOTAL CPU TIME=         11.5 (      0.2 MIN)
 TOTAL WALL CLOCK TIME=         11.5 SECONDS, CPU UTILIZATION IS   100.00%

     -------------------------------------------------
     GMC-PT/GMC-QDPT or general MCSCF input parameters
     -------------------------------------------------
 # of frozen core orbs. =         0 ->         0
 # of doubly occ. orbs. =         1
 # of active      orbs. =         7
 # of virtual     orbs. =        21
 # of active electrons  =         7
 # of states in CI      =         3
 Highest state in CI    =         3
 kstate =  1 1 1
 avecoe =  0.333 0.333 0.333
 State symmetry           = A           
 Assigned symmetry number = 1

 <<<Act. MO sym.: 1111111

 <<<Division of 1-ext.:  0
 <<<Division of 2-ext.:  0

     ------------------------
     Orbital canonicalization
     ------------------------

 MOs are canonicalized for core, virtual, and invariant-active orbital spaces.
 This is a part of the GMC-QDPT calculation.
 SCHWARZ INEQUALITY OVERHEAD:       465 INTEGRALS, T=        0.00
 DIRECT TRANSFORMATION SKIPS AO INTEGRAL STORAGE ON DISK.

 Averaged energy =     -55.673965589

 State #    1  Energy =     -55.798964341  S =  0.500
 State #    2  Energy =     -55.657820884  S =  0.500
 State #    3  Energy =     -55.565111541  S =  0.500

 Orbital energies for filled orbital space
  -16.030910
 Orbital energies for active orbital space
   -1.472910  -0.988615  -0.823435  -0.562748  -0.234087
    0.189045   0.253041
 Orbital energies for external orbital space
    0.198792   0.238947   0.286152   0.599018   0.610438
    0.735887   0.883206   0.999498   1.047795   1.106308
    1.251114   1.336422   1.518032   1.713531   1.752614
    1.990158   2.052371   2.088053   2.346215   2.602366
    2.982360

 Zero values mean non-canonical orbitals.
 ... done with orbital canonicalization ...
 CPU     0: STEP CPU TIME=     0.63 TOTAL CPU TIME=         12.1 (      0.2 MIN)
 TOTAL WALL CLOCK TIME=         12.1 SECONDS, CPU UTILIZATION IS    99.92%

     --------------------------------------------
     PARTIAL TWO ELECTRON INTEGRAL TRANSFORMATION
     --------------------------------------------

 NUMBER OF CORE MOLECULAR ORBITALS     =    0
 NUMBER OF OCCUPIED MOLECULAR ORBITALS =    8
 TOTAL NUMBER OF MOLECULAR ORBITALS    =   29
 TOTAL NUMBER OF ATOMIC ORBITALS       =   30
 THRESHOLD FOR KEEPING TRANSFORMED 2E- INTEGRALS = 1.000E-09
 AO INTEGRALS WILL BE CALCULATED IN DIRECT MODE...
 DIRECT TRANSFORMATION SKIPS AO INTEGRAL STORAGE ON DISK.
 SCHWARZ INEQUALITY OVERHEAD:       465 INTEGRALS, T=        0.00

 PLAN A: REQUIREMENTS FOR FULLY IN-MEMORY TRANSFORMATION:
 # OF WORDS AVAILABLE =            100000000
 # OF WORDS NEEDED    =               221798

 PARALLEL ONLY WORKS WITH THE SEGMENTED ALGORITHM.
 ADJUSTING MEMORY TO USE SEGMENTED ALGORITHM.


 PLAN B: REQUIREMENTS FOR THE SEGMENTED TRANSFORMATION:
       MINIMUM=         124148 WORDS FOR 1 MOLECULAR ORBITAL PER PASS
       MAXIMUM=         221798 WORDS FOR ALL MOLECULAR ORBITALS IN 1 PASS
              (          13950 EXTRA WORDS INCLUDES 1 EXTRA ORBITAL/PASS)
 THIS RUN USES=         221798 WORDS,
 DISTRIBUTING   1 PASSES EACH CONTAINING     8 ORBITALS OVER   1 PROCESSORS.

 CHOOSING SEGMENTED PARTIAL TRANSFORMATION...
 DIRECT TRANSFORMATION SKIPS AO INTEGRAL STORAGE ON DISK.
 PASS #   1 TOOK        0.04 SECONDS.
 TOTAL NUMBER OF TRANSFORMED 2E- INTEGRALS KEPT =        29226
 ... END OF INTEGRAL TRANSFORMATION ...
 CPU     0: STEP CPU TIME=     0.04 TOTAL CPU TIME=         12.2 (      0.2 MIN)
 TOTAL WALL CLOCK TIME=         12.2 SECONDS, CPU UTILIZATION IS    99.92%

     --------     ------------------------------------------
     GMC-QDPT     Program written by H.Nakano (Kyushu Univ.)
     --------     ------------------------------------------

 *** Reference space

 Reference type: ORMAS (= Occupation restricted multiple active space)
 # of orbitals          =  7
 # of minimum electrons =  7
 # of maximum electrons =  7
 State symmetry    =    1 (input)
 2*Sz              =    1 (input)
 Spin multiplicity =    2 (input)
 Dimension of reference space =      1225  (from      3432 walks)

 Dimension of reference space =      1225  (from      1225 walks)

 <<<Ionized spaces for Ref-CI:
      0:         1225 /   -1-0:         1960 /  0-1-0:         2891

 ***                    ***
 *** Reference space CI ***
 ***                    ***

 Converged after   27 iterations

 Reference wavefunctions:

 State #    1  Energy =     -55.798964341  S =  0.500

      Det      Coef    Occupancy (Ignoring core)
      ---      ----    --------- --------- -----
        1   -0.964048  11110001110000
       36   -0.078518  11110001101000
      141    0.063298  11110001100100
      179   -0.079947  10111001010100
      211    0.052667  11110000110100
      393   -0.066384  10110101010010
      717   -0.069626  11010011100001

 State #    2  Energy =     -55.657820884  S =  0.500

      Det      Coef    Occupancy (Ignoring core)
      ---      ----    --------- --------- -----
        1    0.076896  11110001110000
        2    0.113616  11101001110000
       36   -0.959023  11110001101000
       71    0.067549  11110001011000
      249   -0.085708  10111001001100
      281    0.051836  11110000101100
      456    0.051812  11110001001010
      463   -0.065049  10110101001010

 State #    3  Energy =     -55.565111541  S =  0.500

      Det      Coef    Occupancy (Ignoring core)
      ---      ----    --------- --------- -----
        1    0.066631  11110001110000
        2   -0.929177  11101001110000
        3   -0.057416  11011001110000
       36   -0.104687  11110001101000
       37    0.075284  11101001101000
       38    0.092467  11011001101000
      106    0.060097  11110000111000
      110    0.067705  01111000111000
      141    0.132700  11110001100100
      177   -0.066734  11101001010100
      181   -0.079936  11100101010100
      387   -0.090292  11101001010010
      396   -0.075164  10101101010010
      702   -0.052409  11101001100001
      720   -0.058770  11001011100001

 Davidson method: CPU/Wall time =           0.43 /           0.42 sec.

 Oscillator strength (invalid if E(1)/=E(GS)):
 -----------------------------------------
   State                        f
 -----------------------------------------
     2     F(REF-CI)=        0.0052989449
     3     F(REF-CI)=        0.0002657953
 -----------------------------------------

 Dipole moment matrix elements, x, y, z, in A.U.

 Dimension of ionized spaces for PT:
 (N-2) space:         1715 /  (N-1) space:         2842 /  N space:         2891
 (N+1) space:         2842 /  (N+2) space:         1715

 <<<Ionized spaces for internal:
         0:         1225 /      -1-0:         1960 /     0-1-0:         2891
  -1-0-1-0:         2842 / 0-1-0-1-0:         3381

 Diagonal elements of averaged one-particle density matrix:
       2       3       4       5       6       7       8
  0.9913  0.9800  0.9808  0.6793  0.3329  0.0193  0.0163
  0.9820  0.9672  0.6474  0.3440  0.0288  0.0178  0.0128

 Orbital energies:
 -------- Doubly-occupied orbitals (highest several orbs.) -------
             1
 -1.603091D+01
 -------- Active orbitals ----------------------------------------
             2            3            4            5            6
 -1.472910D+00-9.886152D-01-8.234348D-01-5.627483D-01-2.340867D-01
             7            8
  1.890453D-01 2.530412D-01
 -------- External orbitals (lowest several orbs.) ---------------
             9           10           11           12           13
  1.987919D-01 2.389472D-01 2.861519D-01 5.990183D-01 6.104383D-01
            14           15           16           17           18
  7.358866D-01 8.832056D-01 9.994979D-01 1.047795D+00 1.106308D+00

 *** Quasi-degeneracy checking

 === Det (|Ci| > 1.0D-01 and dE < 5.0D-03)

 # of small denominators (single excitations)
 State       dEmin  dE < 5.0D-03  dE < 5.0D-04  dE < 5.0D-05  dE < 5.0D-06
 ----- ----------- ------------- ------------- ------------- -------------
     1    5.00D-03             0             0             0             0
     2    5.00D-03             0             0             0             0
     3    5.00D-03             0             0             0             0

 # of small denominators (double excitations)
 State       dEmin  dE < 5.0D-03  dE < 5.0D-04  dE < 5.0D-05  dE < 5.0D-06
 ----- ----------- ------------- ------------- ------------- -------------
     1    5.00D-03             0             0             0             0
     2    5.00D-03             0             0             0             0
     3    5.00D-03             0             0             0             0

 *** Zeroth-Order Setup (Granovsky's zeroth-order vectors)
 Zeroth-order effective Hamiltonian
  (= Sum_i e(i)*<I|a+(i)a(i)|J> ):
                   1            2            3
     1 -7.015991D+00
     2  2.373905D-02-6.775159D+00
     3  2.752788D-02-9.042347D-03-6.664442D+00

 Zeroth-order vectors:
 State #    1
       MC st            1           2           3
       Coeff    9.919D-01  -9.888D-02  -7.919D-02
 State #    2
       MC st            2           1           3
       Coeff    9.930D-01   1.035D-01   5.637D-02
 State #    3
       MC st            3           1           2
       Coeff    9.953D-01   7.306D-02  -6.411D-02

 *** GMC-QDPT computation

 (Integral reading:  CPU/Wall time =           0.00 /           0.00 sec.)

 One-external:
   0 -ionized terms: CPU/Wall time =           0.03 /           0.03 sec.
 (-1)-ionized terms: CPU/Wall time =           0.09 /           0.09 sec.
 (+1)-ionized terms: CPU/Wall time =           0.02 /           0.02 sec.
 (+1)-ionized terms: CPU/Wall time =           0.01 /           0.01 sec.
 (+2)-ionized terms: CPU/Wall time =           0.00 /           0.00 sec.

 Internal:
 # of macro loops for internal contribution =         1 (input)
 Loop:    1
 Dimension of internal CISD space     =         0  (after screening)
 Space construction: CPU/Wall time =           0.02 /           0.02 sec.
 Internal terms:     CPU/Wall time =           0.00 /           0.00 sec.

 Two-external:
   0 -ionized terms: CPU/Wall time =           0.06 /           0.06 sec.
 (-1)-ionized terms: CPU/Wall time =           1.00 /           1.00 sec.
 (-2)-ionized terms: CPU/Wall time =           0.17 /           0.17 sec.

 Total time:         CPU/Wall time =           1.40 /           1.40 sec.

 ***                  ***
 *** GMC-QDPT Results ***
 ***                  ***

 Diagonal elements of effective Hamiltonian:
 Heff(  1) =   -55.90152056
 Heff(  2) =   -55.78009236
 Heff(  3) =   -55.67006549

 Off-diagonal elements of effective Hamiltonian:
                   1            2
     2 -1.227830D-02
     3 -1.901430D-02 2.185938D-03

 ******** GMC-QDPT energies ********
 ----------------------------------------------------------------------------
   State                        1st order                           2nd order
 ----------------------------------------------------------------------------
     1     E(REF-CI)=      -55.7989643411   E(GMC-QDPT2)=      -55.9042440728
     2     E(REF-CI)=      -55.6578208842   E(GMC-QDPT2)=      -55.7790114040
     3     E(REF-CI)=      -55.5651115412   E(GMC-QDPT2)=      -55.6684229306
 ----------------------------------------------------------------------------

 Excitation energies (invalid if E(1)/=E(GS)):
 ----------------------------------------------------------------------------
   State                        1st order                           2nd order
 ----------------------------------------------------------------------------

     TZ Sorted GMC-PT ENERGIES:
         1      -55.9042440728
         2      -55.7790114040
         3      -55.6684229306
     2     E(REF-CI)=        3.8407111 eV   E(GMC-QDPT2)=        3.4077562 eV
     3     E(REF-CI)=        6.3634621 eV   E(GMC-QDPT2)=        6.4170234 eV
 ----------------------------------------------------------------------------

 Main characters of perturbed GMC-QDPT states:

 State #    1  Energy =     -55.904244073  S =  0.500

      Det      Coef    Occupancy (Ignoring core)
      ---      ----    --------- --------- -----
        1   -0.964145  11110001110000
        2   -0.050287  11101001110000
       36   -0.072291  11110001101000
      141    0.063960  11110001100100
      179   -0.080083  10111001010100
      211    0.052954  11110000110100
      393   -0.066359  10110101010010
      717   -0.069634  11010011100001

 State #    2  Energy =     -55.779011404  S =  0.500

      Det      Coef    Occupancy (Ignoring core)
      ---      ----    --------- --------- -----
        1    0.071947  11110001110000
        2    0.087875  11101001110000
       36   -0.962051  11110001101000
       71    0.066504  11110001011000
      249   -0.085953  10111001001100
      281    0.051963  11110000101100
      456    0.052025  11110001001010
      463   -0.065257  10110101001010

 State #    3  Energy =     -55.668422931  S =  0.500

      Det      Coef    Occupancy (Ignoring core)
      ---      ----    --------- --------- -----
        1    0.070634  11110001110000
        2   -0.931634  11101001110000
        3   -0.056644  11011001110000
       36   -0.077985  11110001101000
       37    0.075019  11101001101000
       38    0.092380  11011001101000
      106    0.061375  11110000111000
      110    0.067936  01111000111000
      141    0.131663  11110001100100
      177   -0.066905  11101001010100
      181   -0.080182  11100101010100
      212   -0.050213  11101000110100
      387   -0.090608  11101001010010
      396   -0.075345  10101101010010
      702   -0.052337  11101001100001
      720   -0.058928  11001011100001

 <<<Max |V/de| = 5.706D-02  Thresh = 1.000D+00

 Oscillator strength (invalid if E(1)/=E(GS)):
 ----------------------------------------------------------------------------
   State                        1st order                           2nd order
 ----------------------------------------------------------------------------
     2     F(REF-CI)=        0.0052989449     F(GMC-PT2)=        0.0046912135
     3     F(REF-CI)=        0.0002657953     F(GMC-PT2)=        0.0003235762
 ----------------------------------------------------------------------------

 Dipole moment matrix elements, x, y, z, in A.U.
States    1    1       -0.3258222614       -0.3565308251        0.5582583419
States    1    2        0.0066155335        0.1051756403        0.2123306192
States    1    3       -0.0100734178       -0.0348432362       -0.0272518531
States    2    1        0.0066155335        0.1051756403        0.2123306192
States    2    2       -0.2479671456       -0.4648721746        0.4449076189
States    2    3        0.0448779310        0.0035218818       -0.0484144297
States    3    1       -0.0100734178       -0.0348432362       -0.0272518531
States    3    2        0.0448779310        0.0035218818       -0.0484144297
States    3    3       -0.8423431222       -0.0888796510        0.7651880478

 Oscillator strength (valid only when positive): 
 ----------------------------------------------------------------------------
  States                        1st order                           2nd order
 ----------------------------------------------------------------------------
  1  1     F(REF-CI)=        0.0000000000     F(GMC-PT2)=        0.0000000000
  1  2     F(REF-CI)=       -0.0052989449     F(GMC-PT2)=       -0.0046912135
  1  3     F(REF-CI)=       -0.0002657953     F(GMC-PT2)=       -0.0003235762
  2  1     F(REF-CI)=        0.0052989449     F(GMC-PT2)=        0.0046912135
  2  2     F(REF-CI)=        0.0000000000     F(GMC-PT2)=        0.0000000000
  2  3     F(REF-CI)=       -0.0004242673     F(GMC-PT2)=       -0.0003222098
  3  1     F(REF-CI)=        0.0002657953     F(GMC-PT2)=        0.0003235762
  3  2     F(REF-CI)=        0.0004242673     F(GMC-PT2)=        0.0003222098
  3  3     F(REF-CI)=        0.0000000000     F(GMC-PT2)=        0.0000000000
 CPU     0: STEP CPU TIME=     1.89 TOTAL CPU TIME=         14.1 (      0.2 MIN)
 TOTAL WALL CLOCK TIME=         14.1 SECONDS, CPU UTILIZATION IS    99.93%

     !!! DIABATIZATION FOR REF CI STATES !!!

 *******************************************************
          $DMO GROUP FOUND IN THE INPUT.
        DIABATIZATION OF ADIABATIC STATES BEGINS.
     PROGRAMMED BY TAO ZENG (CARLETON UNIVERSITY).
               Email: toby.zeng@carleton.ca
     See T. Zeng, J. Chem. Phys. 2017, 146, 144103
 *******************************************************

 *************************************************************************
     STEP 1: TRANSFORMATION OF ADIABATIC STATES TO THE DMO REPRESENTATION
         See Atchity and Ruedenberg, J. Chem. Phys. 1999, 111, 2910
 *************************************************************************

Read in Diabatic Molecualr Orbitals:

                      1          2          3          4          5

    1  N  1  S    0.008609   0.000000   0.000000  -0.013219   0.279491
    2  N  1  S    0.442914  -0.000000   0.000000  -0.184329   0.867803
    3  N  1  S    0.276913   0.000000  -0.000000  -0.288315   0.144236
    4  N  1  X   -0.000000   0.493155  -0.024636  -0.000000  -0.000000
    5  N  1  Y    0.000000   0.024636   0.493155  -0.000000   0.000000
    6  N  1  Z    0.090197   0.000000   0.000000   0.593421   0.705309
    7  N  1  X   -0.000000   0.210628  -0.010522   0.000000   0.000000
    8  N  1  Y    0.000000   0.010522   0.210628  -0.000000  -0.000000
    9  N  1  Z   -0.004381   0.000000   0.000000   0.381592  -0.106092
   10  N  1 XX   -0.000457   0.010719  -0.000535  -0.012387   0.006153
   11  N  1 YY   -0.000457  -0.010719   0.000535  -0.012387   0.006153
   12  N  1 ZZ    0.000914  -0.000000   0.000000   0.024773  -0.012306
   13  N  1 XY    0.000000  -0.000618  -0.012377  -0.000000   0.000000
   14  N  1 XZ   -0.000000   0.026529  -0.001325  -0.000000   0.000000
   15  N  1 YZ    0.000000   0.001325   0.026529  -0.000000   0.000000
   16  H  2  S    0.194462  -0.176074   0.343485   0.112865  -0.523343
   17  H  2  S    0.003574  -0.023812   0.046452   0.024014  -0.054445
   18  H  2  X    0.018760   0.009101   0.022834   0.009336  -0.039151
   19  H  2  Y   -0.032493   0.022287  -0.020044  -0.016171   0.067811
   20  H  2  Z   -0.009251   0.008464  -0.016511   0.018769  -0.010566
   21  H  3  S    0.194462  -0.209430  -0.324227   0.112865  -0.523343
   22  H  3  S    0.003574  -0.028322  -0.043847   0.024014  -0.054445
   23  H  3  X    0.018760   0.006781  -0.023627   0.009336  -0.039151
   24  H  3  Y    0.032493  -0.024174  -0.017723   0.016171  -0.067811
   25  H  3  Z   -0.009251   0.010067   0.015585   0.018769  -0.010566
   26  H  4  S    0.194462   0.385503  -0.019258   0.112865  -0.523343
   27  H  4  S    0.003574   0.052134  -0.002604   0.024014  -0.054445
   28  H  4  X   -0.037519  -0.032295   0.001613  -0.018672   0.078302
   29  H  4  Y    0.000000   0.001067   0.021353  -0.000000   0.000000
   30  H  4  Z   -0.009251  -0.018530   0.000926   0.018769  -0.010566

                      6          7

    1  N  1  S    0.000000  -0.000000
    2  N  1  S    0.000000  -0.000000
    3  N  1  S   -0.000000   0.000000
    4  N  1  X   -0.930415  -0.002083
    5  N  1  Y   -0.002083   0.930415
    6  N  1  Z   -0.000000   0.000000
    7  N  1  X   -0.046866  -0.000105
    8  N  1  Y   -0.000105   0.046866
    9  N  1  Z   -0.000000   0.000000
   10  N  1 XX    0.001538   0.000003
   11  N  1 YY   -0.001538  -0.000003
   12  N  1 ZZ   -0.000000   0.000000
   13  N  1 XY   -0.000004   0.001776
   14  N  1 XZ    0.039985   0.000090
   15  N  1 YZ    0.000090  -0.039985
   16  H  2  S   -0.362630  -0.631354
   17  H  2  S   -0.065964  -0.114846
   18  H  2  X    0.002763  -0.037520
   19  H  2  Y    0.037435   0.040736
   20  H  2  Z    0.001882   0.003276
   21  H  3  S   -0.365454   0.629724
   22  H  3  S   -0.066477   0.114549
   23  H  3  X    0.002595   0.037532
   24  H  3  Y   -0.037617   0.040567
   25  H  3  Z    0.001896  -0.003268
   26  H  4  S    0.728084   0.001630
   27  H  4  S    0.132441   0.000297
   28  H  4  X   -0.062317  -0.000140
   29  H  4  Y    0.000055  -0.024345
   30  H  4  Z   -0.003778  -0.000008

NUMBER OF SUB ACTIVE SPACES:   1
ROTATE ACTIVE MOS TO DMOS IN EACH SUB-SPACE

SPACE  1:

OVERLAP BETWEEN ORTHONORMAL AND PRE-ORTHONORMAL REF. DMOS

             1           2           3           4           5

    1    0.9445818  -0.0315343  -0.0497227  -0.0170426   0.0205610
    2   -0.0315343   0.9884785  -0.0526485  -0.0404385   0.0568685
    3   -0.0497227  -0.0526485   0.8763692  -0.0485970   0.0434903
    4   -0.0170426  -0.0404385  -0.0485970   0.9914906  -0.0243205
    5    0.0205610   0.0568685   0.0434903  -0.0243205   1.2188585
    6   -0.0047037   0.0338449  -0.0529057  -0.0451156  -0.0019748
    7    0.0102767   0.0274150   0.0655907   0.0425123   0.0841100

             6           7

    1   -0.0047037   0.0102767
    2    0.0338449   0.0274150
    3   -0.0529057   0.0655907
    4   -0.0451156   0.0425123
    5   -0.0019748   0.0841100
    6    1.1246761  -0.0100559
    7   -0.0100559   1.1243283
REFERENCE DMOS AFTER ORTHONORMALIZATION:

                      1          2          3          4          5

    1  N  1  S    0.003053  -0.013691  -0.011382  -0.008044   0.231245
    2  N  1  S    0.449153  -0.032336  -0.017001  -0.161066   0.706690
    3  N  1  S    0.284995  -0.008778  -0.006153  -0.284370   0.108432
    4  N  1  X    0.011345   0.526884  -0.045479  -0.018891  -0.023710
    5  N  1  Y    0.020913   0.033587   0.510821  -0.008245  -0.075675
    6  N  1  Z    0.095388  -0.003862   0.016865   0.619574   0.593826
    7  N  1  X    0.007349   0.215931  -0.000252   0.006730  -0.009763
    8  N  1  Y    0.013796   0.024018   0.242458   0.012160  -0.011630
    9  N  1  Z    0.006543   0.021953   0.028896   0.386498  -0.080730
   10  N  1 XX   -0.000504   0.010020  -0.000884  -0.012001   0.004386
   11  N  1 YY   -0.001308  -0.011754  -0.001287  -0.013017   0.005372
   12  N  1 ZZ    0.001813   0.001734   0.002171   0.025019  -0.009758
   13  N  1 XY   -0.000874  -0.001536  -0.014562  -0.000917   0.000416
   14  N  1 XZ    0.001253   0.026005   0.002478   0.002785  -0.001182
   15  N  1 YZ    0.002375   0.004291   0.033718   0.003585   0.001244
   16  H  2  S    0.242560  -0.091567   0.452220   0.137227  -0.404045
   17  H  2  S    0.008766  -0.012430   0.060677   0.027837  -0.038751
   18  H  2  X    0.023427   0.014899   0.033347   0.012912  -0.031793
   19  H  2  Y   -0.037124   0.014039  -0.028450  -0.016521   0.053944
   20  H  2  Z   -0.009981   0.008355  -0.017710   0.017928  -0.008160
   21  H  3  S    0.179261  -0.206607  -0.414062   0.035615  -0.450387
   22  H  3  S   -0.000611  -0.029611  -0.060553   0.011462  -0.048492
   23  H  3  X    0.019198   0.007245  -0.026051   0.006410  -0.034268
   24  H  3  Y    0.033405  -0.020821  -0.021239   0.010327  -0.057154
   25  H  3  Z   -0.007688   0.012392   0.020184   0.020393  -0.009124
   26  H  4  S    0.239806   0.412026   0.085157   0.156436  -0.452752
   27  H  4  S    0.008350   0.053539   0.011786   0.031269  -0.047022
   28  H  4  X   -0.043631  -0.037397  -0.010591  -0.022405   0.066759
   29  H  4  Y    0.001802   0.003238   0.026596   0.002534   0.000538
   30  H  4  Z   -0.009889  -0.017814   0.000622   0.017772  -0.007366

                      6          7

    1  N  1  S   -0.000171  -0.016027
    2  N  1  S   -0.003608  -0.049134
    3  N  1  S   -0.010046   0.000519
    4  N  1  X   -0.846175  -0.017231
    5  N  1  Y    0.027969   0.802943
    6  N  1  Z    0.026585  -0.069374
    7  N  1  X   -0.047945  -0.005364
    8  N  1  Y    0.011359   0.027339
    9  N  1  Z    0.015993  -0.010712
   10  N  1 XX    0.000548  -0.000055
   11  N  1 YY   -0.001588   0.000447
   12  N  1 ZZ    0.001040  -0.000392
   13  N  1 XY   -0.000660   0.002472
   14  N  1 XZ    0.034998  -0.000414
   15  N  1 YZ    0.001354  -0.037874
   16  H  2  S   -0.297649  -0.565530
   17  H  2  S   -0.055269  -0.104111
   18  H  2  X    0.003834  -0.033969
   19  H  2  Y    0.031111   0.034755
   20  H  2  Z    0.001286   0.003779
   21  H  3  S   -0.331297   0.617027
   22  H  3  S   -0.059720   0.108802
   23  H  3  X    0.001471   0.036883
   24  H  3  Y   -0.032998   0.041113
   25  H  3  Z    0.002993  -0.004378
   26  H  4  S    0.645623   0.017973
   27  H  4  S    0.117923   0.001584
   28  H  4  X   -0.055771  -0.002841
   29  H  4  Y    0.001103  -0.023426
   30  H  4  Z   -0.002132   0.000341

 -------------------------------------------
       MAXIMIZING MORMO OVERLAP TERM        
 -------------------------------------------
   SWEEP    VALUE       PROGRESS
     0     4.96769
     1     6.77413     1.80643692
     2     6.81136     0.03722782
     3     6.81137     0.00001118
     4     6.81137     0.00000000
     5     6.81137    -0.00000000
     6     6.81137     0.00000000
 THE ROTATION IS DONE
ACTIVE ORBITALS AFTER MORMO:

                      1          2          3          4          5

    1  N  1  S    0.011152  -0.006100  -0.005672  -0.009089   0.084120
    2  N  1  S    0.420319  -0.026651  -0.032151  -0.192603   0.468978
    3  N  1  S    0.322182  -0.015450  -0.011553  -0.280143   0.502858
    4  N  1  X    0.001034   0.501527  -0.055429  -0.037481  -0.044103
    5  N  1  Y    0.000026   0.026199   0.462046  -0.037776  -0.181785
    6  N  1  Z    0.084851  -0.009834   0.020222   0.634449   0.448150
    7  N  1  X    0.016410   0.243054   0.018297   0.055404  -0.008635
    8  N  1  Y    0.022777   0.018344   0.287491   0.054345   0.134906
    9  N  1  Z    0.034411   0.038343   0.030443   0.360051   0.083893
   10  N  1 XX    0.007657   0.002682   0.018227  -0.004239  -0.017017
   11  N  1 YY   -0.004274   0.000229  -0.012219  -0.005245   0.008367
   12  N  1 ZZ   -0.003383  -0.002911  -0.006008   0.009484   0.008650
   13  N  1 XY   -0.008683  -0.020346  -0.025640  -0.006870   0.015816
   14  N  1 XZ   -0.002585   0.015286   0.002801  -0.005060   0.009493
   15  N  1 YZ   -0.001226   0.002063   0.019812  -0.006745   0.015773
   16  H  2  S    0.189540  -0.124938   0.325743   0.104785  -0.334711
   17  H  2  S    0.068245   0.047112   0.236978   0.079771  -0.296650
[...]
      386    0.054497   -0.054497  2+2+0-0
       54   -0.053821    0.053821  -2+200+
      109    0.051766   -0.051766  +-22+00
      246    0.051350    0.051350  2++2-00
        7    0.049657    0.049657  22-+0+0
       19   -0.046962   -0.046962  -22+00+
      142    0.043073    0.043073  22+0200
      123    0.042580   -0.042580  +-2200+
      717    0.041561    0.041561  220+002
       74   -0.041539    0.041539  2022+00
      351    0.039257    0.039257  22++0-0
       75   -0.037898   -0.037898  -+22+00
       56   -0.034783    0.034783  2-+-+0+
      472   -0.034658   -0.034658  2+020-+
       64    0.034526   -0.034526  2-020++
      178    0.034406    0.034406  2+-+200
      248    0.033440   -0.033440  2+02200
      720    0.032546    0.032546  2200+02
      460   -0.032445   -0.032445  -++2+-0
      463    0.031334   -0.031334  20+2020
      262   -0.030292   -0.030292  2+02-0+
       89   -0.029968   -0.029968  -+2200+
       58    0.029920   -0.029920  2-02+0+
      112   -0.028593   -0.028593  +2-20+0
      806    0.026374    0.026374  2++200-
      716    0.026214    0.026214  22+0002
      144   -0.025882    0.025882  2-++200
      143   -0.025874   -0.025874  220+200
      177    0.025817   -0.025817  2+20200
      482   -0.025616    0.025616  20+-02+
      702    0.025597    0.025597  22+0+0-
      192   -0.024438    0.024438  2+-+-0+
       48   -0.024373    0.024373  2-02++0
        8    0.024298   -0.024298  2-2+0+0
      157    0.024182   -0.024182  220+-0+
      402   -0.023959    0.023959  2+-+0-+
       57   -0.022948   -0.022948  -2+-+0+
      160    0.022884   -0.022884  220020+
      176    0.022097   -0.022097  2+2+-00
      249    0.021988   -0.021988  20+2200
      145   -0.021908   -0.021908  -2++200
      211   -0.021810   -0.021810  +22+-00
       46    0.021679   -0.021679  2-+-++0
      752   -0.021460   -0.021460  2+-+002
      736   -0.021328    0.021328  2+2+00-
      288   -0.021319   -0.021319  +-+2-+0
       23    0.021069    0.021069  2--++0+
      213    0.020941   -0.020941  +2-+200
      111   -0.020781    0.020781  +22-0+0
      771   -0.020734   -0.020734  +22+00-
      823    0.020481   -0.020481  20+2002
      158    0.020423    0.020423  2-++-0+
      707   -0.020341   -0.020341  220+0+-
      226   -0.020100    0.020100  +220-0+

 State #    3  Energy =     -55.714882302

      Det      Coef        Coefp    Occupancy (Ignoring core)
      ---      ----        ----    --------- --------- -----
       36   -0.673604   -0.673604  22+2000
       37   -0.291372    0.291372  22+-+00
        2    0.283138   -0.283138  2220+00
        3    0.247350    0.247350  22-++00
       16    0.211228   -0.211228  222000+
       71   -0.195035    0.195035  2+22000
       17    0.169759    0.169759  22-+00+
        4    0.130949   -0.130949  2-2++00
       51   -0.126745    0.126745  22+-00+
       72   -0.123011   -0.123011  2+2-+00
      107   -0.104416    0.104416  +22-+00
      351    0.096536    0.096536  22++0-0
      121   -0.088936    0.088936  +22-00+
      106   -0.081199   -0.081199  +222000
       18    0.080048   -0.080048  2-2+00+
       41   -0.075723    0.075723  22+-0+0
       42    0.072235   -0.072235  22020+0
       19    0.067754    0.067754  -22+00+
        5    0.065935    0.065935  -22++00
      463    0.059632   -0.059632  20+2020
      246    0.058973    0.058973  2++2-00
      281    0.054518   -0.054518  +2+2-00
      702   -0.050573   -0.050573  22+0+0-
      736   -0.046376    0.046376  2+2+00-
       55   -0.045464   -0.045464  220-+0+
        6   -0.044440    0.044440  22200+0
      141    0.044022    0.044022  22++-00
      701   -0.043014   -0.043014  22++00-
      367    0.040907   -0.040907  220+0-+
      282    0.040615    0.040615  +2+-200
      704    0.040295   -0.040295  2-+++0-
       45    0.039317    0.039317  220-++0
      703    0.038827    0.038827  220++0-
      211    0.038481    0.038481  +22+-00
      717    0.036223    0.036223  220+002
       61   -0.036113   -0.036113  220-0++
      720   -0.035267   -0.035267  2200+02
      718    0.035046   -0.035046  2-++002
      262   -0.034986   -0.034986  2+02-0+
      472   -0.034841   -0.034841  2+020-+
      822    0.033864   -0.033864  2+02002
       86   -0.033671   -0.033671  2+2-00+
      178   -0.033234   -0.033234  2+-+200
       73   -0.033107    0.033107  2+-2+00
        1    0.033067   -0.033067  222+000
      807   -0.032450    0.032450  2++-+0-
      821   -0.032381    0.032381  2++-002
      288   -0.031300   -0.031300  +-+2-+0
      156    0.031289   -0.031289  22+0-0+
      285    0.031130   -0.031130  02+2200
      466    0.030487    0.030487  20+-+20
       76    0.030155    0.030155  2+2-0+0
       40   -0.030027    0.030027  -2+2+00
      457   -0.029622    0.029622  2++-+-0
      212   -0.028485   -0.028485  +220200
      124   -0.028321    0.028321  022200+
      353   -0.028070   -0.028070  220++-0
       52   -0.027471    0.027471  220200+
      249    0.026904   -0.026904  20+2200
      808    0.026643   -0.026643  2+02+0-
       39   -0.025866   -0.025866  2-+2+00
      460   -0.025697   -0.025697  -++2+-0
      396   -0.024977   -0.024977  2020+20
      213   -0.024821    0.024821  +2-+200
      716   -0.024819   -0.024819  22+0002
      108   -0.024491   -0.024491  +2-2+00
      181   -0.024461   -0.024461  2+20-+0
      297    0.024345   -0.024345  +202-0+
      110   -0.024325    0.024325  0222+00
      144    0.023739   -0.023739  2-++200
      143    0.023630    0.023630  220+200
      226    0.023544   -0.023544  +220-0+
      148   -0.023455   -0.023455  2-++-+0
       54   -0.023160    0.023160  -2+200+
      405    0.022538   -0.022538  2+-0+-+
      251    0.022488    0.022488  2++--+0
       38    0.022412   -0.022412  2202+00
      398   -0.022123    0.022123  20-++20
      711    0.022043   -0.022043  2-+0++-
       23   -0.021890   -0.021890  2--++0+
      859    0.021717   -0.021717  02+2002
      841    0.021228   -0.021228  +2+200-
      248    0.021194   -0.021194  2+02200
      771    0.021181    0.021181  +22+00-
        7   -0.020812   -0.020812  22-+0+0
      253    0.020718    0.020718  20+2-+0
      177   -0.020587    0.020587  2+20200
      456    0.020583    0.020583  2++20-0
      254    0.020260   -0.020260  -++2-+0
      158   -0.020117   -0.020117  2-++-0+
       64    0.020074   -0.020074  2-020++

 ---------------------------------------
      - DIABATIC STATES IN CMO -        
 ---------------------------------------

 State #    1  Energy =     -55.813876448

      Det      Coef        Coefp    Occupancy (Ignoring core)
      ---      ----        ----    --------- --------- -----
       36   -0.665284   -0.665284  22+2000
        1    0.590570   -0.590570  222+000
        2   -0.378054    0.378054  2220+00
      106   -0.068603   -0.068603  +222000
      249    0.057349   -0.057349  20+2200
       71   -0.052820    0.052820  2+22000
      387   -0.049752    0.049752  2+20+-0
      142    0.045982    0.045982  22+0200
      463    0.045668   -0.045668  20+2020
      717   -0.043341   -0.043341  220+002
      393   -0.043194   -0.043194  202+020
      181    0.042135    0.042135  2+20-+0
      179   -0.040016   -0.040016  202+200
      212    0.035962    0.035962  +220200
      281   -0.034537    0.034537  +2+2-00
      177   -0.032665    0.032665  2+20200
      110    0.032350   -0.032350  0222+00
      396    0.031050    0.031050  2020+20
       38    0.031049   -0.031049  2202+00
      456    0.030244    0.030244  2++20-0
      472   -0.028051   -0.028051  2+020-+
      122    0.027800    0.027800  +2-200+
      191    0.026794    0.026794  2+20-0+
      708    0.026500   -0.026500  2-++0+-
      143   -0.025944   -0.025944  220+200
       20   -0.025594   -0.025594  22-0+0+
      157    0.025288   -0.025288  220+-0+
      402    0.025283   -0.025283  2+-+0-+
       54   -0.024333    0.024333  -2+200+
       40    0.024247   -0.024247  -2+2+00
      148   -0.023632   -0.023632  2-++-+0
      460   -0.023363   -0.023363  -++2+-0
      720    0.023361    0.023361  2200+02
      702    0.023272    0.023272  22+0+0-
      288   -0.022826   -0.022826  +-+2-+0
      857    0.022270    0.022270  +202002
      859    0.022186   -0.022186  02+2002
      246    0.021984    0.021984  2++2-00
      218    0.021915   -0.021915  +-2+-+0
       64    0.020953   -0.020953  2-020++
      113   -0.020733    0.020733  +-220+0
      737   -0.020558    0.020558  2+20+0-
      248    0.020033   -0.020033  2+02200

 State #    2  Energy =     -55.822919658

      Det      Coef        Coefp    Occupancy (Ignoring core)
      ---      ----        ----    --------- --------- -----
        1   -0.722304    0.722304  222+000
        2   -0.537326    0.537326  2220+00
       36   -0.323517   -0.323517  22+2000
      141   -0.102384   -0.102384  22++-00
      179    0.069281    0.069281  202+200
       37    0.064796   -0.064796  22+-+00
      211   -0.061903   -0.061903  +22+-00
      107    0.055877   -0.055877  +22-+00
       71   -0.054042    0.054042  2+22000
      717    0.052592    0.052592  220+002
      386    0.048011   -0.048011  2+2+0-0
      393    0.047531    0.047531  202+020
       38    0.045050   -0.045050  2202+00
      396    0.041529    0.041529  2020+20
       76   -0.038507   -0.038507  2+2-0+0
        3    0.037588    0.037588  22-++00
      720    0.035113    0.035113  2200+02
      387   -0.033985    0.033985  2+20+-0
      110    0.033802   -0.033802  0222+00
       74    0.032821   -0.032821  2022+00
      249    0.031438   -0.031438  20+2200
      181    0.031373    0.031373  2+20-+0
      218   -0.031066    0.031066  +-2+-+0
      402   -0.030846    0.030846  2+-+0-+
      708   -0.030316    0.030316  2-++0+-
      701   -0.029373   -0.029373  22++00-
      177   -0.028566    0.028566  2+20200
      390   -0.028461    0.028461  -+2++-0
      106   -0.024627   -0.024627  +222000
      711   -0.024100    0.024100  2-+0++-
      178    0.023907    0.023907  2+-+200
      157   -0.023132    0.023132  220+-0+
      703    0.022721    0.022721  220++0-
      405   -0.022265    0.022265  2+-0+-+
      144   -0.021735    0.021735  2-++200
       40    0.021523   -0.021523  -2+2+00
      463    0.021399   -0.021399  20+2020
      121   -0.021273    0.021273  +22-00+
      176    0.020996   -0.020996  2+2+-00
      789    0.020934    0.020934  022+002
       29    0.020915    0.020915  2--+0++
      456    0.020908    0.020908  2++20-0
      357    0.020681    0.020681  220+020
      191    0.020530    0.020530  2+20-0+
        4   -0.020490    0.020490  2-2++00

 State #    3  Energy =     -55.714882302

      Det      Coef        Coefp    Occupancy (Ignoring core)
      ---      ----        ----    --------- --------- -----
        2    0.668243   -0.668243  2220+00
       36   -0.624166   -0.624166  22+2000
        1   -0.263144    0.263144  222+000
      141    0.107338    0.107338  22++-00
       38   -0.074565    0.074565  2202+00
      387    0.070308   -0.070308  2+20+-0
      181   -0.062306   -0.062306  2+20-+0
      249    0.056287   -0.056287  20+2200
      108    0.055475    0.055475  +2-2+00
      396   -0.055033   -0.055033  2020+20
        3   -0.053778   -0.053778  22-++00
       37   -0.053560    0.053560  22+-+00
      177    0.051677   -0.051677  2+20200
      110   -0.049833    0.049833  0222+00
      702   -0.046709   -0.046709  22+0+0-
      463    0.042123   -0.042123  20+2020
      720   -0.041821   -0.041821  2200+02
      212   -0.041303   -0.041303  +220200
      456    0.037744    0.037744  2++20-0
      191   -0.037373   -0.037373  2+20-0+
       20    0.033660    0.033660  22-0+0+
      281   -0.033634    0.033634  +2+2-00
        6    0.031333   -0.031333  22200+0
      711    0.030069   -0.030069  2-+0++-
      106    0.029824    0.029824  +222000
      737    0.028959   -0.028959  2+20+0-
      405    0.028451   -0.028451  2+-0+-+
      472   -0.028122   -0.028122  2+020-+
      122    0.026679    0.026679  +2-200+
      246    0.026023    0.026023  2++2-00
      354    0.024081   -0.024081  2-+++-0
      148   -0.023610   -0.023610  2-++-+0
       54   -0.023546    0.023546  -2+200+
      211    0.023447    0.023447  +22+-00
       39   -0.023370   -0.023370  2-+2+00
       72    0.023226    0.023226  2+2-+00
      356    0.022429    0.022429  22+0020
       40   -0.021841    0.021841  -2+2+00
       10   -0.021816   -0.021816  22-0++0
      288   -0.021425   -0.021425  +-+2-+0
       76    0.021214    0.021214  2+2-0+0
      790   -0.020569    0.020569  +2-0+02
      391   -0.020528    0.020528  2+20020
       42   -0.020472    0.020472  22020+0
       43   -0.020452   -0.020452  2-+20+0
      109    0.020259   -0.020259  +-22+00
       64    0.020167   -0.020167  2-020++
       32   -0.020035   -0.020035  2--0+++

 ---------------------------------------
    -DIABATIC STATES IN PROTOTYPES-     
 ---------------------------------------

     STATE:    1
 Group Ref#    Coefficients
     1    1    0.831242
     2    2   -0.080867
     3    3    0.047917

WEIGHT OF LISTED PROTOTYPES:   69.98%

     STATE:    2
 Group Ref#    Coefficients
     1    1   -0.251402
     2    2    0.213427
     3    3    0.488506

WEIGHT OF LISTED PROTOTYPES:   34.74%

     STATE:    3
 Group Ref#    Coefficients
     1    1    0.049353
     2    2    0.161843
     3    3    0.687229

WEIGHT OF LISTED PROTOTYPES:   50.09%

     DIRECT MAX. DIABATIZATION FINISHED    
 CPU     0: STEP CPU TIME=     0.25 TOTAL CPU TIME=         14.3 (      0.2 MIN)
 TOTAL WALL CLOCK TIME=         14.3 SECONDS, CPU UTILIZATION IS    99.93%

DIABATS FOR SPIN-ORBIT CALCULATION ARE READY

TRANSITION DIPOLES BETWEEN ADIABATS (in A.U.):

STATE PAIR      X         Y         Z
    1    1 -0.325822 -0.356531  0.558258
    2    1  0.006616  0.105176  0.212331
    2    2 -0.247967 -0.464872  0.444908
    3    1 -0.010073 -0.034843 -0.027252
    3    2  0.044878  0.003522 -0.048414
    3    3 -0.842343 -0.088880  0.765188


TRANSITION DIPOLES BETWEEN DIABATS (in A.U.):

STATE PAIR      X         Y         Z
    1    1 -0.337872 -0.269431  0.750584
    2    1 -0.115204  0.039621  0.041625
    2    2 -0.673095 -0.264934  0.608125
    3    1  0.113716 -0.073365 -0.037748
    3    2  0.221052 -0.197098 -0.205101
    3    3 -0.405166 -0.375918  0.409645

TRANSITION DIPOLES BETWEEN DIRECT MAX. DIABATS (in A.U.):

STATE PAIR      X         Y         Z
    1    1 -0.375934 -0.262870  0.755577
    2    1 -0.097107 -0.006877 -0.019028
    2    2 -0.468996 -0.407298  0.449706
    3    1  0.193331 -0.113255 -0.080468
    3    2  0.223985 -0.169265 -0.209278
    3    3 -0.571203 -0.240115  0.563071
 No $TRANST Group Found.
 Quit without doing spin-orbit coupling
 ..... DONE WITH MP2 ENERGY .....
 CPU     0: STEP CPU TIME=     0.01 TOTAL CPU TIME=         14.3 (      0.2 MIN)
 TOTAL WALL CLOCK TIME=         14.3 SECONDS, CPU UTILIZATION IS   100.00%
            100000000  WORDS OF DYNAMIC MEMORY USED
 EXECUTION OF GAMESS TERMINATED NORMALLY Wed Nov 16 18:17:18 2022
 DDI: 715512 bytes (0.7 MB / 0 MWords) used by master data server.

 ----------------------------------------
 CPU timing information for all processes
 ========================================
 0: 14.23 + 0.300 = 14.323
 ----------------------------------------
Note: The following floating-point exceptions are signalling: IEEE_DENORMAL
 ddikick.x: exited gracefully.
unset echo
----- accounting info -----
Files used on the master node io002 were:
-rw-r--r-- 1 bsonghao nooijen   20715 Nov 16 18:17 /scratch/bsonghao/nh3_diabatization_2d_at_mode_7_8_dist-0.8_-0.7.F05
-rw-r--r-- 1 bsonghao nooijen  363520 Nov 16 18:17 /scratch/bsonghao/nh3_diabatization_2d_at_mode_7_8_dist-0.8_-0.7.F09
-rw-r--r-- 1 bsonghao nooijen 1995920 Nov 16 18:17 /scratch/bsonghao/nh3_diabatization_2d_at_mode_7_8_dist-0.8_-0.7.F10
-rw-r--r-- 1 bsonghao nooijen  131264 Nov 16 18:17 /scratch/bsonghao/nh3_diabatization_2d_at_mode_7_8_dist-0.8_-0.7.F13
-rw-r--r-- 1 bsonghao nooijen  180312 Nov 16 18:17 /scratch/bsonghao/nh3_diabatization_2d_at_mode_7_8_dist-0.8_-0.7.F15
-rw-r--r-- 1 bsonghao nooijen       0 Nov 16 18:17 /scratch/bsonghao/nh3_diabatization_2d_at_mode_7_8_dist-0.8_-0.7.F16
-rw-r--r-- 1 bsonghao nooijen    9808 Nov 16 18:17 /scratch/bsonghao/nh3_diabatization_2d_at_mode_7_8_dist-0.8_-0.7.F70
-rw-r--r-- 1 bsonghao nooijen    9808 Nov 16 18:17 /scratch/bsonghao/nh3_diabatization_2d_at_mode_7_8_dist-0.8_-0.7.F71
-rw-r--r-- 1 bsonghao nooijen   19608 Nov 16 18:17 /scratch/bsonghao/nh3_diabatization_2d_at_mode_7_8_dist-0.8_-0.7.F72
-rw-r--r-- 1 bsonghao nooijen   19608 Nov 16 18:17 /scratch/bsonghao/nh3_diabatization_2d_at_mode_7_8_dist-0.8_-0.7.F73
-rw-r--r-- 1 bsonghao nooijen 1920824 Nov 16 18:17 /scratch/bsonghao/nh3_diabatization_2d_at_mode_7_8_dist-0.8_-0.7.F74
-rw-r--r-- 1 bsonghao nooijen       0 Nov 16 18:17 /scratch/bsonghao/nh3_diabatization_2d_at_mode_7_8_dist-0.8_-0.7.F75
-rw-r--r-- 1 bsonghao nooijen   58848 Nov 16 18:17 /scratch/bsonghao/nh3_diabatization_2d_at_mode_7_8_dist-0.8_-0.7.F76
-rw-r--r-- 1 bsonghao nooijen       0 Nov 16 18:17 /scratch/bsonghao/nh3_diabatization_2d_at_mode_7_8_dist-0.8_-0.7.F77
-rw-r--r-- 1 bsonghao nooijen    1864 Nov 16 18:17 /scratch/bsonghao/nh3_diabatization_2d_at_mode_7_8_dist-0.8_-0.7.F78
-rw-r--r-- 1 bsonghao nooijen   39208 Nov 16 18:17 /scratch/bsonghao/nh3_diabatization_2d_at_mode_7_8_dist-0.8_-0.7.F79
-rw-r--r-- 1 bsonghao nooijen     104 Nov 16 18:17 /scratch/bsonghao/nh3_diabatization_2d_at_mode_7_8_dist-0.8_-0.7.F80
-rw-r--r-- 1 bsonghao nooijen   13472 Nov 16 18:17 /scratch/bsonghao/nh3_diabatization_2d_at_mode_7_8_dist-0.8_-0.7.F81
-rw-r--r-- 1 bsonghao nooijen      16 Nov 16 18:17 /scratch/bsonghao/nh3_diabatization_2d_at_mode_7_8_dist-0.8_-0.7.F82
-rw-r--r-- 1 bsonghao nooijen   19216 Nov 16 18:17 /scratch/bsonghao/nh3_diabatization_2d_at_mode_7_8_dist-0.8_-0.7.F83
-rw-r--r-- 1 bsonghao nooijen   29712 Nov 16 18:17 /scratch/bsonghao/nh3_diabatization_2d_at_mode_7_8_dist-0.8_-0.7.F84
-rw-r--r-- 1 bsonghao nooijen  401576 Nov 16 18:17 /scratch/bsonghao/nh3_diabatization_2d_at_mode_7_8_dist-0.8_-0.7.F85
-rw-r--r-- 1 bsonghao nooijen  903672 Nov 16 18:17 /scratch/bsonghao/nh3_diabatization_2d_at_mode_7_8_dist-0.8_-0.7.F86
-rw-r--r-- 1 bsonghao nooijen     656 Nov 16 18:17 /scratch/bsonghao/nh3_diabatization_2d_at_mode_7_8_dist-0.8_-0.7.F87
-rw-r--r-- 1 bsonghao nooijen   47280 Nov 16 18:17 /scratch/bsonghao/nh3_diabatization_2d_at_mode_7_8_dist-0.8_-0.7.F88
-rw-r--r-- 1 bsonghao nooijen     240 Nov 16 18:17 /scratch/bsonghao/nh3_diabatization_2d_at_mode_7_8_dist-0.8_-0.7.F89
-rw-r--r-- 1 bsonghao nooijen       0 Nov 16 18:17 /scratch/bsonghao/nh3_diabatization_2d_at_mode_7_8_dist-0.8_-0.7.F90
-rw-r--r-- 1 bsonghao nooijen   13760 Nov 16 18:17 /scratch/bsonghao/nh3_diabatization_2d_at_mode_7_8_dist-0.8_-0.7.F91
-rw-r--r-- 1 bsonghao nooijen   22776 Nov 16 18:17 /scratch/bsonghao/nh3_diabatization_2d_at_mode_7_8_dist-0.8_-0.7.F92
-rw-r--r-- 1 bsonghao nooijen   23168 Nov 16 18:17 /scratch/bsonghao/nh3_diabatization_2d_at_mode_7_8_dist-0.8_-0.7.F93
-rw-r--r-- 1 bsonghao nooijen   22776 Nov 16 18:17 /scratch/bsonghao/nh3_diabatization_2d_at_mode_7_8_dist-0.8_-0.7.F94
-rw-r--r-- 1 bsonghao nooijen   13760 Nov 16 18:17 /scratch/bsonghao/nh3_diabatization_2d_at_mode_7_8_dist-0.8_-0.7.F95
-rw-r--r-- 1 bsonghao nooijen   29440 Nov 16 18:17 /scratch/bsonghao/nh3_diabatization_2d_at_mode_7_8_dist-0.8_-0.7.F96
-rw-r--r-- 1 bsonghao nooijen    1184 Nov 16 18:17 /scratch/bsonghao/nh3_diabatization_2d_at_mode_7_8_dist-0.8_-0.7.F97
-rw-r--r-- 1 bsonghao nooijen    9808 Nov 16 18:17 /scratch/bsonghao/nh3_diabatization_2d_at_mode_7_8_dist-0.8_-0.7.F98
-rw-r--r-- 1 bsonghao nooijen   30264 Nov 16 18:17 /scratch/bsonghao/nh3_diabatization_2d_at_mode_7_8_dist-0.8_-0.7.F99
ls: No match.
ls: No match.
ls: No match.
Wed 16 Nov 2022 06:17:21 PM EST
0.282u 0.053s 0:17.69 1.8%	0+0k 48+224io 0pf+0w
