----- GAMESS execution script 'rungms' -----
This job is running on host io002
under operating system Linux at Wed 16 Nov 2022 08:03:01 PM EST
Available scratch disk space (Kbyte units) at beginning of the job is
Filesystem       1K-blocks       Used   Available Use% Mounted on
/dev/sdc1      15378471580 3278917120 11318349060  23% /scratch
GAMESS temporary binary files will be written to /scratch/bsonghao
GAMESS supplementary output files will be written to /home/bsonghao/.gamess_ascii_files/267638
Copying input file nh3_diabatization_2d_at_mode_7_8_dist0.5_0.4.inp to your run's scratch directory...
cp nh3_diabatization_2d_at_mode_7_8_dist0.5_0.4.inp /scratch/bsonghao/nh3_diabatization_2d_at_mode_7_8_dist0.5_0.4.F05
unset echo
/home/bjb2chen/gamess/ddikick.x /home/bjb2chen/gamess/gamess.00.x nh3_diabatization_2d_at_mode_7_8_dist0.5_0.4 -ddi 1 1 io002 -scr /scratch/bsonghao

 Distributed Data Interface kickoff program.
 Initiating 1 compute processes on 1 nodes to run the following command:
 /home/bjb2chen/gamess/gamess.00.x nh3_diabatization_2d_at_mode_7_8_dist0.5_0.4 

          ******************************************************
          *         GAMESS VERSION = 02 AUG 2018 (R2)         *
          *             FROM IOWA STATE UNIVERSITY             *
          * M.W.SCHMIDT, K.K.BALDRIDGE, J.A.BOATZ, S.T.ELBERT, *
          *   M.S.GORDON, J.H.JENSEN, S.KOSEKI, N.MATSUNAGA,   *
          *          K.A.NGUYEN, S.J.SU, T.L.WINDUS,           *
          *       TOGETHER WITH M.DUPUIS, J.A.MONTGOMERY       *
          *         J.COMPUT.CHEM.  14, 1347-1363(1993)        *
          **************** 64 BIT LINUX VERSION ****************

  SINCE 1993, STUDENTS AND POSTDOCS WORKING AT IOWA STATE UNIVERSITY
  AND ALSO IN THEIR VARIOUS JOBS AFTER LEAVING ISU HAVE MADE IMPORTANT
  CONTRIBUTIONS TO THE CODE:
     IVANA ADAMOVIC, CHRISTINE AIKENS, YURI ALEXEEV, POOJA ARORA,
     ANDREY ASADCHEV, ROB BELL, PRADIPTA BANDYOPADHYAY, JONATHAN BENTZ,
     BRETT BODE, KURT BRORSEN, CALEB CARLIN, GALINA CHABAN, WEI CHEN,
     CHEOL HO CHOI, PAUL DAY, ALBERT DEFUSCO, NUWAN DESILVA, TIM DUDLEY,
     DMITRI FEDOROV, ALEX FINDLATER, GRAHAM FLETCHER, MARK FREITAG,
     KURT GLAESEMANN, ANASTASIA GUININA,
     DAN KEMP, GRANT MERRILL, NORIYUKI MINEZAWA, JONATHAN MULLIN,
     TAKESHI NAGATA, SEAN NEDD, HEATHER NETZLOFF, BOSILJKA NJEGIC, RYAN OLSON,
     MIKE PAK, BUU PHAM,
     SPENCER PRUITT, LUKE ROSKOP, JIM SHOEMAKER, LYUDMILA SLIPCHENKO,
     TONY SMITH, SAROM SOK LEANG, JIE SONG, TETSUYA TAKETSUGU, SIMON WEBB,
     PENG XU, SOOHAENG YOO, FEDERICO ZAHARIEV

  ADDITIONAL CODE HAS BEEN PROVIDED BY COLLABORATORS IN OTHER GROUPS:
     IOWA STATE UNIVERSITY:
          JOE IVANIC, AARON WEST, LAIMUTIS BYTAUTAS, KLAUS RUEDENBERG
     UNIVERSITY OF TOKYO: KIMIHIKO HIRAO, TAKAHITO NAKAJIMA,
          TAKAO TSUNEDA, MUNEAKI KAMIYA, SUSUMU YANAGISAWA,
          KIYOSHI YAGI, MAHITO CHIBA, SEIKEN TOKURA, NAOAKI KAWAKAMI
     UNIVERSITY OF AARHUS: FRANK JENSEN
     UNIVERSITY OF IOWA: VISVALDAS KAIRYS, HUI LI
     NATIONAL INST. OF STANDARDS AND TECHNOLOGY: WALT STEVENS, DAVID GARMER
     UNIVERSITY OF PISA: BENEDETTA MENNUCCI, JACOPO TOMASI
     UNIVERSITY OF MEMPHIS: HENRY KURTZ, PRAKASHAN KORAMBATH
     UNIVERSITY OF ALBERTA: TOBY ZENG, MARIUSZ KLOBUKOWSKI
     UNIVERSITY OF NEW ENGLAND: MARK SPACKMAN
     MIE UNIVERSITY: HIROAKI UMEDA
     NAT. INST. OF ADVANCED INDUSTRIAL SCIENCE AND TECHNOLOGY: KAZUO KITAURA
     MICHIGAN STATE UNIVERSITY:
          KAROL KOWALSKI, MARTA WLOCH, JEFFREY GOUR, JESSE LUTZ,
          WEI LI, JUN SHEN, J. EMILIANO DEUSTUA, PIOTR PIECUCH
     UNIVERSITY OF MINNESOTA:
          YINAN SHU
     UNIVERSITY OF SILESIA: MONIKA MUSIAL, STANISLAW KUCHARSKI
     FACULTES UNIVERSITAIRES NOTRE-DAME DE LA PAIX:
          OLIVIER QUINET, BENOIT CHAMPAGNE
     UNIVERSITY OF CALIFORNIA - SANTA BARBARA: BERNARD KIRTMAN
     INSTITUTE FOR MOLECULAR SCIENCE:
          KAZUYA ISHIMURA, MICHIO KATOUDA, AND SHIGERU NAGASE
     UNIVERSITY OF NOTRE DAME: ANNA POMOGAEVA, DAN CHIPMAN
     KYUSHU UNIVERSITY:
          HARUYUKI NAKANO,
          FENG LONG GU, JACEK KORCHOWIEC, MARCIN MAKOWSKI, AND YURIKO AOKI,
          HIROTOSHI MORI AND EISAKU MIYOSHI
     PENNSYLVANIA STATE UNIVERSITY:
          TZVETELIN IORDANOV, CHET SWALINA, JONATHAN SKONE,
          SHARON HAMMES-SCHIFFER
     WASEDA UNIVERSITY:
          MASATO KOBAYASHI, TOMOKO AKAMA, TSUGUKI TOUMA,
          TAKESHI YOSHIKAWA, YASUHIRO IKABATA, JUNJI SEINO,
          YUYA NAKAJIMA, HIROMI NAKAI
     NANJING UNIVERSITY: SHUHUA LI
     UNIVERSITY OF NEBRASKA:
          PEIFENG SU, DEJUN SI, NANDUN THELLAMUREGE, YALI WANG, HUI LI
     UNIVERSITY OF ZURICH: ROBERTO PEVERATI, KIM BALDRIDGE
     N. COPERNICUS UNIVERSITY AND JACKSON STATE UNIVERSITY:
          MARIA BARYSZ
     UNIVERSITY OF COPENHAGEN: Jimmy Kromann, CASPER STEINMANN
     TOKYO INSTITUTE OF TECHNOLOGY: HIROYA NAKATA
     NAGOYA UNIVERSITY: YOSHIO NISHIMOTO, STEPHAN IRLE
     MOSCOW STATE UNIVERSITY: VLADIMIR MIRONOV

 EXECUTION OF GAMESS BEGUN Wed Nov 16 20:03:01 2022

            ECHO OF THE FIRST FEW INPUT CARDS -
 INPUT CARD> $system kdiag=3 mwords=100 memddi=1000 parall=.t. $end                         
 INPUT CARD> $contrl runtyp=energy ispher=1 $end                                            
 INPUT CARD> $contrl icut=9 itol=20 inttyp=rysquad qmttol=1.0d-05 nosym=1 $end              
 INPUT CARD> $scf    npunch=2 conv=1.0d-06 dirscf=.t.      $end                             
 INPUT CARD> $contrl scftyp=mcscf  mult=2 maxit=200 icharg=1 mplevl=2 $end                  
 INPUT CARD> $guess  guess=moread norb=29 purify=.t. $end                                   
 INPUT CARD> $basis  gbasis=ccd $end                                                        
 INPUT CARD> $mcscf  cistep=gmcci fullnr=.t. finci=mos                                      
 INPUT CARD>         acurcy=1.d-6 maxit=100 $end                                            
 INPUT CARD> $trans  dirtrf=.t. $end                                                        
 INPUT CARD> $mrmp   mrpt=gmcpt rdvecs=.f. $end                                             
 INPUT CARD> $gmcpt  nmofzc=0 nmodoc=1 nmoact=7 nelact=7 stsym(1)=A                         
 INPUT CARD>         reftyp=ormas nspace=1 mstart(1)=2 mine(1)=7 maxe(1)=7                  
 INPUT CARD>         kstate(1)=1,1,1                                                        
 INPUT CARD>         wstate(1)=1,1,1                                                        
 INPUT CARD>         iwgt=0 thrwgt=-1.0 krot=.f. kszdoe=.f. knospn=.f.                      
 INPUT CARD>         thrde=-1.0 edshft=0.02 $end                                            
 INPUT CARD> $data                                                                          
 INPUT CARD> NH3+ 3 states calculation at NH3 structure.                                    
 INPUT CARD> c1                                                                             
 INPUT CARD>N 7.0 -0.024915672000000007 -0.031144515 -0.1693809002                          
 INPUT CARD>H 1.0 -0.07061042499999992 0.9927625838 0.3179701701                            
 INPUT CARD>H 1.0 -0.45273701799999994 -0.9248777298000002 0.08936278710000001              
 INPUT CARD>H 1.0 0.8695573719999999 0.364878728 0.36205103510000003                        
 INPUT CARD>$end                                                                            
 INPUT CARD>--- OPTIMIZED RHF      MO-S --- GENERATED AT Mon Nov 14 16:47:08 2022           
 INPUT CARD>E=      -56.3825050291, E(NUC)=   11.8429239490                                 
 INPUT CARD> $VEC                                                                           
 INPUT CARD> 1  1-1.00134066E+00-2.25158504E-03 3.44925845E-03 0.00000000E+00 0.00000000E+00
 INPUT CARD> 1  2-2.13170927E-03 0.00000000E+00 0.00000000E+00 6.57129898E-04-6.87950443E-05
 INPUT CARD> 1  3-6.87950443E-05 1.37590089E-04 0.00000000E+00 0.00000000E+00 0.00000000E+00
 INPUT CARD> 1  4 3.25502815E-04-4.84772356E-04 3.62525460E-04-6.27912517E-04-3.45956485E-04
 INPUT CARD> 1  5 3.25502815E-04-4.84772356E-04 3.62525460E-04 6.27912517E-04-3.45956485E-04
 INPUT CARD> 1  6 3.25502815E-04-4.84772356E-04-7.25050921E-04 0.00000000E+00-3.45956485E-04
 INPUT CARD> 2  1 1.31286642E-02-4.05911371E-01-2.82090992E-01 0.00000000E+00 0.00000000E+00
 INPUT CARD> 2  2-7.71489043E-02 0.00000000E+00 0.00000000E+00 9.73717494E-03 6.62450916E-04
 INPUT CARD> 2  3 6.62450916E-04-1.32490183E-03 0.00000000E+00 0.00000000E+00 0.00000000E+00
 INPUT CARD> 2  4-1.96090317E-01-1.96656153E-02-1.74855877E-02 3.02859263E-02 8.68214399E-03
 INPUT CARD> 2  5-1.96090317E-01-1.96656153E-02-1.74855877E-02-3.02859263E-02 8.68214399E-03
 INPUT CARD> 2  6-1.96090317E-01-1.96656153E-02 3.49711754E-02 0.00000000E+00 8.68214399E-03
 INPUT CARD> 3  1 0.00000000E+00 0.00000000E+00 0.00000000E+00 4.48608762E-01 0.00000000E+00
 INPUT CARD> 3  2 0.00000000E+00 2.18692520E-01 0.00000000E+00 0.00000000E+00 1.30198027E-02
 INPUT CARD> 3  3-1.30198027E-02 0.00000000E+00 0.00000000E+00 2.71832968E-02 0.00000000E+00
 INPUT CARD> 3  4-1.85332726E-01-7.03958951E-02 8.47929477E-03 1.95242443E-02 8.32835058E-03
 INPUT CARD> 3  5-1.85332726E-01-7.03958951E-02 8.47929477E-03-1.95242443E-02 8.32835058E-03
 INPUT CARD> 3  6 3.70665453E-01 1.40791790E-01-2.53376884E-02 0.00000000E+00-1.66567012E-02
 INPUT CARD> 4  1 0.00000000E+00 0.00000000E+00 0.00000000E+00 0.00000000E+00 4.48608762E-01
 INPUT CARD> 4  2 0.00000000E+00 0.00000000E+00 2.18692520E-01 0.00000000E+00 0.00000000E+00
 INPUT CARD> 4  3 0.00000000E+00 0.00000000E+00-1.50339731E-02 0.00000000E+00 2.71832968E-02
 INPUT CARD> 4  4 3.21005698E-01 1.21929267E-01 1.95242443E-02-1.40653607E-02-1.44251263E-02
  100000000 WORDS OF MEMORY AVAILABLE

     BASIS OPTIONS
     -------------
     GBASIS=CCD          IGAUSS=       0      POLAR=NONE    
     NDFUNC=       0     NFFUNC=       0     DIFFSP=       F
     NPFUNC=       0      DIFFS=       F     BASNAM=        


     RUN TITLE
     ---------
  NH3+ 3 states calculation at NH3 structure.                                    

 THE POINT GROUP OF THE MOLECULE IS C1      
 THE ORDER OF THE PRINCIPAL AXIS IS     0

 ATOM      ATOMIC                      COORDINATES (BOHR)
           CHARGE         X                   Y                   Z
 N           7.0    -0.0470837929       -0.0588545994       -0.3200834889
 H           1.0    -0.1334343551        1.8760492542        0.6008764938
 H           1.0    -0.8555489085       -1.7477654815        0.1688711811
 H           1.0     1.6432251637        0.6895208147        0.6841772499

          INTERNUCLEAR DISTANCES (ANGS.)
          ------------------------------

                1 N          2 H          3 H          4 H     

   1 N       0.0000000    1.1348942 *  1.0240793 *  1.1132548 *
   2 H       1.1348942 *  0.0000000    1.9686611 *  1.1314136 *
   3 H       1.0240793 *  1.9686611 *  0.0000000    1.8671618 *
   4 H       1.1132548 *  1.1314136 *  1.8671618 *  0.0000000  

  * ... LESS THAN  3.000


     ATOMIC BASIS SET
     ----------------
 THE CONTRACTED PRIMITIVE FUNCTIONS HAVE BEEN UNNORMALIZED
 THE CONTRACTED BASIS FUNCTIONS ARE NOW NORMALIZED TO UNITY

  SHELL TYPE  PRIMITIVE        EXPONENT          CONTRACTION COEFFICIENT(S)

 N         

      1   S       1          9046.0000000    0.000699617413
      1   S       2          1357.0000000    0.005386054630
      1   S       3           309.3000000    0.027391021189
      1   S       4            87.7300000    0.103150591982
      1   S       5            28.5600000    0.278570663317
      1   S       6            10.2100000    0.448294849454
      1   S       7             3.8380000    0.278085928395
      1   S       8             0.7466000    0.015431561233

      2   S       9          9046.0000000   -0.000304990096
      2   S      10          1357.0000000   -0.002408026379
      2   S      11           309.3000000   -0.011944448725
      2   S      12            87.7300000   -0.048925992909
      2   S      13            28.5600000   -0.134472724725
      2   S      14            10.2100000   -0.315112577700
      2   S      15             3.8380000   -0.242857832550
      2   S      16             0.7466000    1.094382206854

      3   S      17             0.2248000    1.000000000000

      4   P      18            13.5500000    0.058905676772
      4   P      19             2.9170000    0.320461106714
      4   P      20             0.7973000    0.753042061792

      5   P      21             0.2185000    1.000000000000

      6   D      22             0.8170000    1.000000000000

 H         

      7   S      23            13.0100000    0.033498726390
      7   S      24             1.9620000    0.234800801174
      7   S      25             0.4446000    0.813682957883

      8   S      26             0.1220000    1.000000000000

      9   P      27             0.7270000    1.000000000000

 H         

     10   S      28            13.0100000    0.033498726390
     10   S      29             1.9620000    0.234800801174
     10   S      30             0.4446000    0.813682957883

     11   S      31             0.1220000    1.000000000000

     12   P      32             0.7270000    1.000000000000

 H         

     13   S      33            13.0100000    0.033498726390
     13   S      34             1.9620000    0.234800801174
     13   S      35             0.4446000    0.813682957883

     14   S      36             0.1220000    1.000000000000

     15   P      37             0.7270000    1.000000000000

 TOTAL NUMBER OF BASIS SET SHELLS             =   15
 NUMBER OF CARTESIAN GAUSSIAN BASIS FUNCTIONS =   30
 NOTE: THIS RUN WILL RESTRICT THE MO VARIATION SPACE TO SPHERICAL HARMONICS.
 THE NUMBER OF ORBITALS KEPT IN THE VARIATIONAL SPACE WILL BE PRINTED LATER.
 NUMBER OF ELECTRONS                          =    9
 CHARGE OF MOLECULE                           =    1
 SPIN MULTIPLICITY                            =    2
 NUMBER OF OCCUPIED ORBITALS (ALPHA)          =    5
 NUMBER OF OCCUPIED ORBITALS (BETA )          =    4
 TOTAL NUMBER OF ATOMS                        =    4
 THE NUCLEAR REPULSION ENERGY IS       11.2284184367

     $CONTRL OPTIONS
     ---------------
 SCFTYP=MCSCF        RUNTYP=ENERGY       EXETYP=RUN     
 MPLEVL=       2     CITYP =NONE         CCTYP =NONE         VBTYP =NONE    
 DFTTYP=NONE         TDDFT =NONE    
 MULT  =       2     ICHARG=       1     NZVAR =       0     COORD =UNIQUE  
 PP    =NONE         RELWFN=NONE         LOCAL =NONE         NUMGRD=       F
 ISPHER=       1     NOSYM =       1     MAXIT =     200     UNITS =ANGS    
 PLTORB=       F     MOLPLT=       F     AIMPAC=       F     FRIEND=        
 NPRINT=       7     IREST =       0     GEOM  =INPUT   
 NORMF =       0     NORMP =       0     ITOL  =      20     ICUT  =       9
 INTTYP=RYSQUAD      GRDTYP=BEST         QMTTOL= 1.0E-05

     $SYSTEM OPTIONS
     ---------------
  REPLICATED MEMORY=   100000000 WORDS (ON EVERY NODE).
 DISTRIBUTED MEMDDI=        1000 MILLION WORDS IN AGGREGATE,
 MEMDDI DISTRIBUTED OVER   1 PROCESSORS IS  1000000000 WORDS/PROCESSOR.
 TOTAL MEMORY REQUESTED ON EACH PROCESSOR=  1100000000 WORDS.
 TIMLIM=      525600.00 MINUTES, OR     365.0 DAYS.
 PARALL= T  BALTYP=  DLB     KDIAG=    3  COREFL= F
 MXSEQ2=     300 MXSEQ3=     150  mem10=         0

          ----------------
          PROPERTIES INPUT
          ----------------

     MOMENTS            FIELD           POTENTIAL          DENSITY
 IEMOM =       1   IEFLD =       0   IEPOT =       0   IEDEN =       0
 WHERE =COMASS     WHERE =NUCLEI     WHERE =NUCLEI     WHERE =NUCLEI  
 OUTPUT=BOTH       OUTPUT=BOTH       OUTPUT=BOTH       OUTPUT=BOTH    
 IEMINT=       0   IEFINT=       0                     IEDINT=       0
                                                       MORB  =       0

     -------------------------------
     INTEGRAL TRANSFORMATION OPTIONS
     -------------------------------
     NWORD  =            0
     CUTOFF = 1.0E-09     MPTRAN =       0
     DIRTRF =       T     AOINTS =DUP     

          ----------------------
          MCSCF INPUT PARAMETERS
          ----------------------
 CONVERGER SELECTION: FOCAS = F  SOSCF = F  FULLNR = T  QUD = F  JACOBI = F
 SECULAR EQUATION METHOD CISTEP = GMCCI   
 --- GENERAL INPUT OPTIONS:
 MAXIT =     100  MICIT =       1  ACURCY= 1.000E-06
 DAMP  =   0.000  CANONC=       T  ENGTOL= 1.000E-10
 EKT   =       F  NPUNCH=       2  NWORD =         0
 REGENERATE CI AFTER CONVERGENCE = NONE    
 DIABATIZATION AFTER CONVERGENCE =        F
 --- INPUT FOR FULLNR CONVERGER:
 METHOD=DM2       FORS  =       F  DROPC =       T
 LINSER=       F  FCORE =       F  NORB  =      30

          ----------------------
          INTEGRAL INPUT OPTIONS
          ----------------------
 NOPK  =       1 NORDER=       0 SCHWRZ=       T

 ------------------------------------------
 MULTIREFERENCE PERTURBATION THEORY CONTROL
 ------------------------------------------
 MRPT=GMCPT    READ CONVERGED MCSCF VECTORS= F


     ------------------------------------------
     THE POINT GROUP IS C1 , NAXIS= 1, ORDER= 1
     ------------------------------------------

 -- VARIATIONAL SPACE WILL BE RESTRICTED TO PURE SPHERICAL HARMONICS ONLY --
 AFTER EXCLUDING CONTAMINANT COMBINATIONS FROM THE CARTESIAN GAUSSIAN BASIS
 SET, THE NUMBER OF SPHERICAL HARMONICS KEPT IN THE VARIATION SPACE IS   29

     DIMENSIONS OF THE SYMMETRY SUBSPACES ARE
 A   =   29

 ..... DONE SETTING UP THE RUN .....
 CPU     0: STEP CPU TIME=     0.03 TOTAL CPU TIME=          0.0 (      0.0 MIN)
 TOTAL WALL CLOCK TIME=          0.0 SECONDS, CPU UTILIZATION IS    75.00%

          ********************
          1 ELECTRON INTEGRALS
          ********************
 TIME TO DO   DIPOLE INTEGRALS=      0.00
 ...... END OF ONE-ELECTRON INTEGRALS ......
 CPU     0: STEP CPU TIME=     0.00 TOTAL CPU TIME=          0.0 (      0.0 MIN)
 TOTAL WALL CLOCK TIME=          0.0 SECONDS, CPU UTILIZATION IS    75.00%

          -------------
          GUESS OPTIONS
          -------------
          GUESS =MOREAD            NORB  =      29          NORDER=       0
          MIX   =       F          PRTMO =       F          PUNMO =       F
          TOLZ  = 1.0E-08          TOLE  = 1.0E-05
          SYMDEN=       F          PURIFY=       T

 INITIAL GUESS ORBITALS GENERATED BY MOREAD   ROUTINE.

 STATISTICS FOR GENERATION OF SYMMETRY ORBITAL -Q- MATRIX
 NUMBER OF CARTESIAN ATOMIC ORBITALS=         30
 NUMBER OF SPHERICAL CONTAMINANTS DROPPED=     1
 NUMBER OF LINEARLY DEPENDENT MOS DROPPED=     0
 TOTAL NUMBER OF MOS IN VARIATION SPACE=      29
 ORBITAL PURIFICATION WILL OCCUR

 SYMMETRIES FOR INITIAL GUESS ORBITALS FOLLOW.   BOTH SET(S).
     5 ORBITALS ARE OCCUPIED (    1 CORE ORBITALS).
     1=A        2=A        3=A        4=A        5=A        6=A        7=A   
     8=A        9=A       10=A       11=A       12=A       13=A       14=A   
    15=A       16=A       17=A       18=A       19=A       20=A       21=A   
    22=A       23=A       24=A       25=A       26=A       27=A       28=A   
    29=A   
 ...... END OF INITIAL ORBITAL SELECTION ......
 CPU     0: STEP CPU TIME=     0.01 TOTAL CPU TIME=          0.0 (      0.0 MIN)
 TOTAL WALL CLOCK TIME=          0.0 SECONDS, CPU UTILIZATION IS    80.00%

                    ----------------------
                    AO INTEGRAL TECHNOLOGY
                    ----------------------
     S,P,L SHELL ROTATED AXIS INTEGRALS, REPROGRAMMED BY
        KAZUYA ISHIMURA (IMS) AND JOSE SIERRA (SYNSTAR).
     S,P,D,L SHELL ROTATED AXIS INTEGRALS PROGRAMMED BY
        KAZUYA ISHIMURA (INSTITUTE FOR MOLECULAR SCIENCE).
     S,P,D,F,G SHELL TO TOTAL QUARTET ANGULAR MOMENTUM SUM 5,
        ERIC PROGRAM BY GRAHAM FLETCHER (ELORET AND NASA ADVANCED
        SUPERCOMPUTING DIVISION, AMES RESEARCH CENTER).
     S,P,D,F,G,L SHELL GENERAL RYS QUADRATURE PROGRAMMED BY
        MICHEL DUPUIS (PACIFIC NORTHWEST NATIONAL LABORATORY).

          --------------------
          2 ELECTRON INTEGRALS
          --------------------

 DIRECT SCF METHOD SKIPS INTEGRAL STORAGE ON DISK.
 DIRECT TRANSFORMATION SKIPS AO INTEGRAL STORAGE ON DISK.
  ...... END OF TWO-ELECTRON INTEGRALS .....
 STEP CPU TIME =     0.02 TOTAL CPU TIME =          0.1 (      0.0 MIN)
 TOTAL WALL CLOCK TIME=          0.1 SECONDS, CPU UTILIZATION IS    75.00%
 DDI: Creating Array [0] - 900 x 36 = 32400 words.
 DDI: Creating Array [1] - 21 x 288 = 6048 words.
 DDI: Creating Array [2] - 36 x 36 = 1296 words.
 DDI: Creating Array [3] - 465 x 36 = 16740 words.

          -----------------
          MCSCF CALCULATION
          -----------------

 ----- NUCLEAR ENERGY ----- =        11.2284184367

     -------------------------------------------------
     GMC-PT/GMC-QDPT or general MCSCF input parameters
     -------------------------------------------------
 # of frozen core orbs. =         0 ->         0
 # of doubly occ. orbs. =         1
 # of active      orbs. =         7
 # of virtual     orbs. =        21
 # of active electrons  =         7
 # of states in CI      =         3
 Highest state in CI    =         3
 kstate =  1 1 1
 avecoe =  0.333 0.333 0.333
 State symmetry           = A           
 Assigned symmetry number = 1

 <<<Act. MO sym.: 1111111

 <<<Division of 1-ext.:  0
 <<<Division of 2-ext.:  0

 *** Reference space

 Reference type: ORMAS (= Occupation restricted multiple active space)
 # of orbitals          =  7
 # of minimum electrons =  7
 # of maximum electrons =  7
 State symmetry    =    1 (input)
 2*Sz              =    1 (input)
 Spin multiplicity =    2 (input)
 Dimension of reference space =      1225  (from      3432 walks)

 Dimension of reference space =      1225  (from      1225 walks)

 <<<Ionized spaces for Ref-CI:
      0:         1225 /   -1-0:         1960 /  0-1-0:         2891

 EVALUATING EXCHANGE INTEGRALS FOR DIRECT INTEGRAL TRANSFORMATION
 SCHWARZ INEQUALITY OVERHEAD:       465 INTEGRALS, T=        0.01

     --------------------------------------------
     PARTIAL TWO ELECTRON INTEGRAL TRANSFORMATION
     --------------------------------------------

 NUMBER OF CORE MOLECULAR ORBITALS     =    1
 NUMBER OF OCCUPIED MOLECULAR ORBITALS =    8
 TOTAL NUMBER OF MOLECULAR ORBITALS    =   29
 TOTAL NUMBER OF ATOMIC ORBITALS       =   30
 THRESHOLD FOR KEEPING TRANSFORMED 2E- INTEGRALS = 1.000E-09

 -------------------------------     ------------------------------
 DISTRIBUTED DATA TRANSFORMATION     PROGRAM WRITTEN BY G. FLETCHER
 -------------------------------     ------------------------------

 THE DISTRIBUTED MEMORY REQUIRED FOR THIS STEP IS MEMDDI=         1 MWORDS
 CREATING DISTRIBUTED STORAGE FOR [VIR OCC|VIR OCC] INTEGRALS
 CREATING DISTRIBUTED STORAGE FOR [VIR OCC|OCC OCC] INTEGRALS
 CREATING DISTRIBUTED STORAGE FOR [OCC OCC|OCC OCC] INTEGRALS
 CREATING DISTRIBUTED STORAGE FOR [VIR VIR|OCC OCC] INTEGRALS
 FOR    1 PROCESSORS, THE REPLICATED MEMORY NEEDED IS       73700 WORDS.
 SCHWARZ INEQUALITY OVERHEAD:       465 INTEGRALS, T=        0.00

      DIRECT 4-INDEX TRANSFORMATION 
      SCHWARZ INEQUALITY TEST SKIPPED          0 INTEGRAL BLOCKS
 ----- FROZEN CORE ENERGY =       -47.6486980321
 ... END OF INTEGRAL TRANSFORMATION ...
 CPU     0: STEP CPU TIME=     0.22 TOTAL CPU TIME=          0.3 (      0.0 MIN)
 TOTAL WALL CLOCK TIME=          0.3 SECONDS, CPU UTILIZATION IS    96.55%

     --------------------------------     -----------------------------
     MCHF NEWTON-RAPHSON OPTIMIZATION     CODE WRITTEN BY MICHEL DUPUIS
     --------------------------------     -----------------------------
     PARALLEL VERSION WRITTEN BY G. FLETCHER (ELORET)
     NASA ADVANCED SUPERCOMPUTING DIVISION, AMES RESEARCH CENTER

 NUMBER OF INDEPENDENT ORBITAL ROTATION PARAMETERS =   175
 ..... DONE SOLVING NEWTON-RAPHSON EQUATIONS .....
 CPU     0: STEP CPU TIME=     0.79 TOTAL CPU TIME=          1.1 (      0.0 MIN)
 TOTAL WALL CLOCK TIME=          1.1 SECONDS, CPU UTILIZATION IS    99.07%
 ..... DONE WITH NTN-RPH ORBITAL ROTATIONS ..... 
 CPU     0: STEP CPU TIME=     0.00 TOTAL CPU TIME=          1.1 (      0.0 MIN)
 TOTAL WALL CLOCK TIME=          1.1 SECONDS, CPU UTILIZATION IS    99.07%
 MAXIMUM MEMORY USED BY NTN-RPH CODE WAS     57645 WORDS.

 ITER     TOTAL ENERGY      DEL(E)  LAGRANGIAN ASYMMETRY   SQCDF  MICIT   DAMP
   1      -55.602029801 -0.602029801  0.113814   12    5 1.145E-01  1   0.0000
   2      -55.654308351 -0.052278550  0.020705   12    5 4.552E-01  1   0.0000
   3      -55.689947017 -0.035638665  0.013493   11    6 2.368E-01  1   0.0208
   4      -55.705986778 -0.016039761  0.004624   11    6 5.030E-02  1   0.0056
   5      -55.708268179 -0.002281401  0.000833   12    5 1.609E-03  1   0.0000
   6      -55.708340605 -0.000072426  0.000288   24    5 1.523E-04  1   0.0000
   7      -55.708348706 -0.000008101  0.000112   22    5 2.774E-05  1   0.0000
   8      -55.708350263 -0.000001557  0.000056   22    5 6.049E-06  1   0.0000
   9      -55.708350614 -0.000000350  0.000029   22    5 1.532E-06  1   0.0000
  10      -55.708350704 -0.000000091  0.000015   22    5 4.473E-07  1   0.0000
  11      -55.708350731 -0.000000027  0.000009   23    5 1.466E-07  1   0.0000
  12      -55.708350740 -0.000000009  0.000005   23    5 5.199E-08  1   0.0000
  13      -55.708350743 -0.000000003  0.000003   23    5 1.926E-08  1   0.0000
  14      -55.708350744 -0.000000001  0.000002   23    5 7.431E-09  1   0.0000
  15      -55.708350744 -0.000000000  0.000001   23    5 2.872E-09  1   0.0000
  16      -55.708350744 -0.000000000  0.000001   12    8 1.148E-09  1   0.0000

          --------------------
          LAGRANGIAN CONVERGED
          --------------------

 FINAL MCSCF ENERGY IS      -55.7083507444 AFTER  16 ITERATIONS

 -MCCI- BASED ON OPTIMIZED ORBITALS
 ----------------------------------

 PLEASE NOTE: IF THE ACTIVE ORBITALS ARE CANONICALIZED BELOW,
 THE FOLLOWING CI EXPANSION COEFFICIENTS AND THE DENSITY DO NOT
 CORRESPOND TO THE PRINTED ORBITALS.  THE PRINTED EXPANSIONS MATCH
 THE ORBITALS USED DURING THE LAST ITERATION.  IF YOU WISH TO SEE
 CI EXPANSIONS BASED ON THE CANONICAL (OR NATURAL) ORBITALS, YOU
 MUST RUN A CI CALCULATION WITH THAT ORBITAL CHOICE READ IN $VEC.

 Averaged energy =     -55.708350744

 State #    1  Energy =     -55.842133713  S =  0.500

      Det      Coef    Occupancy (Ignoring core)
      ---      ----    --------- --------- -----
        1   -0.938202  11110001110000
        5    0.068635  01111001110000
        8    0.132383  10110101110000
       17   -0.132432  11010011110000
       71    0.132563  11110001011000
      211   -0.052043  11110000110100
      386   -0.097821  11110001010010
      393   -0.066762  10110101010010
      701    0.107433  11110001100001
      717   -0.052995  11010011100001

 State #    2  Energy =     -55.748173567  S =  0.500

      Det      Coef    Occupancy (Ignoring core)
      ---      ----    --------- --------- -----
        1    0.082211  11110001110000
       36    0.528108  11110001101000
       43   -0.057567  10110101101000
       52    0.051800  11010011101000
       71    0.800075  11110001011000
       75   -0.057978  01111001011000
       78   -0.080124  10110101011000
       87    0.088746  11010011011000
      456    0.059710  11110001001010
      806    0.081529  11110001001001

 State #    3  Energy =     -55.534744953  S =  0.500

      Det      Coef    Occupancy (Ignoring core)
      ---      ----    --------- --------- -----
        1   -0.112253  11110001110000
       36    0.804633  11110001101000
       43   -0.066342  10110101101000
       52    0.051183  11010011101000
       71   -0.517690  11110001011000
      281    0.066223  11110000101100
      456    0.078692  11110001001010
      463    0.061635  10110101001010
      806   -0.050731  11110001001001

 DENSITY MATRIX OVER ACTIVE MO-S

             1           2           3           4           5

    1    1.9744873
    2    0.0097983   1.6287708
    3    0.0044202   0.0038204   1.6326312
    4    0.0019457   0.0012062  -0.0004765   1.6533193
    5    0.1053546  -0.0314929  -0.0188846  -0.0062386   0.0331962
    6   -0.0038625  -0.1494330  -0.0119033   0.0289469   0.0023554
    7   -0.0104218  -0.0045030  -0.1515488   0.0170385  -0.0013453

             6           7

    6    0.0409439
    7   -0.0032771   0.0366512

 FORMING THE "STANDARD FOCK OPERATOR" IN DIRECT AO INTEGRAL MODE...
 ONLY THE    1 CORE AND   21 VIRTUAL ORBITALS WILL BE CANONICALIZED

          ----------------------
          MCSCF NATURAL ORBITALS
          ----------------------

                      1          2          3          4          5
                  -15.9863     1.9805     1.6556     1.6495     1.6392
                     A          A          A          A          A   
    1  N  1  S    1.001143   0.008291  -0.009088  -0.004390  -0.000873
    2  N  1  S   -0.001831   0.434461  -0.127760  -0.145716  -0.014060
    3  N  1  S   -0.006237   0.325793  -0.219807  -0.198520  -0.021830
    4  N  1  X   -0.000067   0.021281  -0.151136   0.184150   0.477496
    5  N  1  Y   -0.000203   0.016366  -0.245413   0.318298  -0.272009
    6  N  1  Z    0.001187   0.086886   0.512868   0.280461  -0.005366
    7  N  1  X   -0.000032   0.002577  -0.076031   0.052096   0.275006
    8  N  1  Y   -0.000060   0.004339  -0.106657   0.086147  -0.153044
    9  N  1  Z   -0.000569   0.016938   0.347657   0.165520  -0.010353
   10  N  1 XX   -0.000123  -0.002295  -0.012089  -0.003324   0.010036
   11  N  1 YY    0.000360   0.002377  -0.007834  -0.008925  -0.009785
   12  N  1 ZZ   -0.000237  -0.000082   0.019924   0.012249  -0.000251
   13  N  1 XY    0.000392   0.003706   0.001875  -0.001519   0.004351
   14  N  1 XZ    0.000054   0.001687  -0.004524   0.010002   0.021404
   15  N  1 YZ    0.000028   0.002511  -0.009082   0.015471  -0.012028
   16  H  2  S   -0.001515   0.180318  -0.009304   0.257218  -0.277434
   17  H  2  S    0.000306   0.001669   0.015840   0.037210  -0.101912
   18  H  2  X   -0.000092   0.003142  -0.002798   0.016876   0.011658
   19  H  2  Y    0.000780  -0.031326  -0.004474  -0.025556   0.025954
   20  H  2  Z    0.000432  -0.009765   0.023743  -0.000699   0.013032
   21  H  3  S   -0.002054   0.172135   0.274433  -0.268930   0.012000
   22  H  3  S    0.000689  -0.001790   0.041968  -0.022277  -0.001938
   23  H  3  X   -0.000484   0.015613   0.012026  -0.011168   0.018734
   24  H  3  Y   -0.000988   0.030260   0.027407  -0.026224  -0.006314
   25  H  3  Z    0.000355  -0.002795   0.011177   0.020293  -0.000516
   26  H  4  S   -0.001599   0.193483   0.000994   0.265683   0.278645
   27  H  4  S    0.000285   0.005023   0.016389   0.039732   0.102356
   28  H  4  X    0.000763  -0.030878  -0.006755  -0.029407  -0.015946
   29  H  4  Y    0.000282  -0.011865  -0.005673   0.006338  -0.020135
   30  H  4  Z    0.000468  -0.012692   0.023306  -0.002402  -0.016231

                      6          7          8
                    0.0301     0.0269     0.0181
                     A          A          A   
    1  N  1  S   -0.066214  -0.150421  -0.152205
    2  N  1  S   -0.232268  -0.547571  -0.443929
    3  N  1  S   -0.047573  -0.211001   0.040247
    4  N  1  X    0.618888  -0.407054   0.344838
    5  N  1  Y   -0.412898  -0.183630   0.792087
    6  N  1  Z   -0.176605  -0.575377  -0.163702
    7  N  1  X   -0.059468  -0.045582   0.046857
    8  N  1  Y    0.007555  -0.090643   0.094361
    9  N  1  Z    0.017355   0.024206   0.077453
   10  N  1 XX   -0.045959  -0.011906   0.000619
   11  N  1 YY    0.047035   0.010630   0.017713
   12  N  1 ZZ   -0.001075   0.001276  -0.018333
   13  N  1 XY   -0.000715   0.047390  -0.001624
   14  N  1 XZ   -0.008684   0.030032  -0.011670
   15  N  1 YZ    0.018878   0.032032  -0.037893
   16  H  2  S    0.726158   0.297448  -0.219094
   17  H  2  S    0.221768   0.004660  -0.063516
   18  H  2  X   -0.007261   0.038254  -0.022803
   19  H  2  Y   -0.064166  -0.030617   0.004320
   20  H  2  Z   -0.008563   0.025673  -0.006229
   21  H  3  S    0.155105   0.243291   0.859200
   22  H  3  S    0.017524   0.007287   0.149542
   23  H  3  X   -0.000401   0.018179   0.037996
   24  H  3  Y    0.018849   0.031748   0.077618
   25  H  3  Z   -0.001023   0.001094   0.022310
   26  H  4  S   -0.441594   0.692967  -0.110788
   27  H  4  S   -0.185143   0.137420  -0.022426
   28  H  4  X    0.015170  -0.067867   0.003067
   29  H  4  Y    0.033616   0.002983  -0.029789
   30  H  4  Z    0.024069   0.009329  -0.005825

          ------------------------
          MCSCF OPTIMIZED ORBITALS
          ------------------------

                      1          2          3          4          5
                  -15.9863     0.0000     0.0000     0.0000     0.0000
                     A          A          A          A          A   
    1  N  1  S    1.001143  -0.001972   0.009824   0.011537  -0.011182
    2  N  1  S   -0.001831   0.399910  -0.007748  -0.007312  -0.184041
    3  N  1  S   -0.006237   0.317092  -0.050036  -0.036674  -0.285368
    4  N  1  X   -0.000067   0.005177   0.449701  -0.081325  -0.027324
    5  N  1  Y   -0.000203   0.000634  -0.009572   0.397019  -0.037560
    6  N  1  Z    0.001187   0.051056   0.002750  -0.001945   0.587486
    7  N  1  X   -0.000032  -0.005631   0.272127  -0.096415  -0.040513
    8  N  1  Y   -0.000060  -0.000160  -0.059113   0.185131  -0.045174
    9  N  1  Z   -0.000569   0.018536  -0.028362  -0.026461   0.384891
   10  N  1 XX   -0.000123  -0.003934   0.012986  -0.005232  -0.012326
   11  N  1 YY    0.000360   0.004260  -0.014387   0.003225  -0.010728
   12  N  1 ZZ   -0.000237  -0.000326   0.001401   0.002007   0.023054
   13  N  1 XY    0.000392   0.006025   0.003524  -0.004388   0.000267
   14  N  1 XZ    0.000054   0.002360   0.025664  -0.002944   0.000384
   15  N  1 YZ    0.000028   0.003810   0.001915   0.025386  -0.000859
   16  H  2  S   -0.001515   0.204306  -0.125947   0.395653   0.121231
   17  H  2  S    0.000306   0.006170  -0.081733   0.093408   0.033333
   18  H  2  X   -0.000092   0.004116   0.021394   0.007735   0.005136
   19  H  2  Y    0.000780  -0.033778   0.012725  -0.034527  -0.016984
   20  H  2  Z    0.000432  -0.008636   0.004864  -0.017847   0.019588
   21  H  3  S   -0.002054   0.203868  -0.250581  -0.371456   0.114955
   22  H  3  S    0.000689   0.001292  -0.033872  -0.043438   0.027560
   23  H  3  X   -0.000484   0.016987   0.005026  -0.026581   0.005131
   24  H  3  Y   -0.000988   0.033838  -0.030137  -0.031371   0.011708
   25  H  3  Z    0.000355  -0.002903   0.005366   0.007997   0.020196
   26  H  4  S   -0.001599   0.208260   0.417899   0.014705   0.120822
   27  H  4  S    0.000285   0.005952   0.116636  -0.044685   0.030383
   28  H  4  X    0.000763  -0.033051  -0.029292  -0.008371  -0.019715
   29  H  4  Y    0.000282  -0.011274  -0.012731   0.022165  -0.001952
   30  H  4  Z    0.000468  -0.011330  -0.022558  -0.000585   0.018936

                      6          7          8          9         10
                    0.0000     0.0000     0.0000     0.1175     0.1953
                     A          A          A          A          A   
    1  N  1  S    0.199466  -0.062179  -0.079605  -0.098969   0.025207
    2  N  1  S    0.716982  -0.164366  -0.205847  -0.140692   0.027287
    3  N  1  S    0.215266   0.076185   0.069087   1.121640  -0.384053
    4  N  1  X    0.060663   0.857173  -0.069243  -0.025131  -0.048608
    5  N  1  Y    0.080663   0.179382   0.932520  -0.026219  -0.128180
    6  N  1  Z    0.624391   0.020082  -0.017092  -0.131362   0.019124
    7  N  1  X    0.043594   0.024528   0.066451   0.131373   0.336772
    8  N  1  Y    0.052698   0.089613   0.093805   0.178033   0.691903
    9  N  1  Z   -0.048577   0.032790   0.046018   0.320519  -0.001471
   10  N  1 XX    0.025460  -0.027606   0.027275  -0.017881   0.020748
   11  N  1 YY   -0.029547   0.038653  -0.012798   0.057024  -0.055646
   12  N  1 ZZ    0.004087  -0.011047  -0.014477  -0.039143   0.034899
   13  N  1 XY   -0.041872  -0.021385  -0.002964   0.066800  -0.050867
   14  N  1 XZ   -0.021426  -0.023011  -0.005780   0.035975   0.044059
   15  N  1 YZ   -0.024926  -0.018709  -0.040700   0.045030   0.086176
   16  H  2  S   -0.440817   0.292720  -0.575038   0.383689   0.177502
   17  H  2  S   -0.059463   0.123848  -0.172723  -0.886119  -0.639520
   18  H  2  X   -0.026235  -0.031602  -0.015057   0.060966   0.005458
   19  H  2  Y    0.046145  -0.031503   0.038681   0.065270   0.020971
   20  H  2  Z   -0.019103  -0.020654  -0.002946   0.042397   0.067017
   21  H  3  S   -0.487868   0.426050   0.569037   0.300697  -0.542175
   22  H  3  S   -0.052392   0.082958   0.107542  -0.550468   1.938997
   23  H  3  X   -0.025651   0.011666   0.028242  -0.037551   0.054032
   24  H  3  Y   -0.053557   0.037237   0.048505  -0.062715   0.118040
   25  H  3  Z   -0.007225   0.010429   0.019359  -0.025020  -0.073463
   26  H  4  S   -0.447687  -0.647529   0.143546   0.361464   0.185838
   27  H  4  S   -0.058390  -0.199058   0.080132  -0.880000  -0.660532
   28  H  4  X    0.054481   0.039546  -0.004726   0.036269   0.013370
   29  H  4  Y   -0.006247   0.007558  -0.042005   0.092352   0.006856
   30  H  4  Z   -0.015040   0.008567  -0.019443   0.046892   0.060026

                     11         12         13         14         15
                    0.2472     0.5269     0.5704     0.6409     0.8573
                     A          A          A          A          A   
    1  N  1  S    0.006165  -0.110062  -0.008680  -0.015350  -0.567887
    2  N  1  S    0.013734  -0.121485   0.017423   0.022461  -1.271100
    3  N  1  S   -0.039655   0.955451   0.205717   0.186475   2.238034
    4  N  1  X    0.012008   0.242065  -0.604031  -0.114295  -0.049845
    5  N  1  Y   -0.025310   0.109746   0.301513  -0.400348  -0.089203
    6  N  1  Z    0.007046  -0.660534  -0.151453  -0.269598   0.295568
    7  N  1  X   -0.365071  -0.504629   1.359528   0.732010   0.066589
    8  N  1  Y    0.269131  -0.407431  -0.594466   1.753483   0.104945
    9  N  1  Z   -0.029468   0.986588   0.311338   0.650472  -0.105870
   10  N  1 XX   -0.068426  -0.006392  -0.015127   0.020406   0.024291
   11  N  1 YY    0.070348  -0.017061   0.008123  -0.007882  -0.004042
   12  N  1 ZZ   -0.001921   0.023453   0.007004  -0.012524  -0.020248
   13  N  1 XY   -0.043307  -0.023625  -0.028749   0.003673  -0.071398
   14  N  1 XZ   -0.051953  -0.001441   0.001415  -0.021296   0.004481
   15  N  1 YZ    0.028533   0.002226   0.001115  -0.053556  -0.026937
   16  H  2  S    0.597969  -0.233747   0.241284  -0.598093  -0.004535
   17  H  2  S   -2.042931  -0.153581   0.796127  -0.442057  -0.373982
   18  H  2  X   -0.062935  -0.098349  -0.070983  -0.015401  -0.291454
   19  H  2  Y    0.068809  -0.002381  -0.047548   0.229955   0.124119
   20  H  2  Z    0.013284   0.114655  -0.032908  -0.076512   0.045441
   21  H  3  S    0.024067  -0.628825  -0.103849   0.484042  -0.182284
   22  H  3  S   -0.025199  -0.410546   0.076307   0.739644  -0.495140
   23  H  3  X    0.041937  -0.036335   0.083940   0.058469   0.002070
   24  H  3  Y   -0.011906  -0.089219  -0.037887   0.175391  -0.100420
   25  H  3  Z   -0.001135   0.045845   0.016134   0.139278   0.169062
   26  H  4  S   -0.609254  -0.154376  -0.487399  -0.455905   0.000949
   27  H  4  S    2.076588   0.141257  -0.927609  -0.262972  -0.341183
   28  H  4  X   -0.091572   0.012000   0.079500   0.203737   0.220569
   29  H  4  Y    0.022512  -0.100931   0.047678   0.042611  -0.215590
   30  H  4  Z   -0.022331   0.088225   0.086338  -0.063799   0.087029

                     16         17         18         19         20
                    1.0323     1.1138     1.2433     1.3192     1.4764
                     A          A          A          A          A   
    1  N  1  S   -0.242208   0.110442   0.215431  -0.117199  -0.466764
    2  N  1  S   -0.496046   0.230211   0.450280  -0.248968  -0.987759
    3  N  1  S    1.021262  -0.503046  -0.894488   0.445829   1.565024
    4  N  1  X   -0.030219   0.068678  -0.071499   0.096968  -0.074467
    5  N  1  Y   -0.058455  -0.084909  -0.196191  -0.062978  -0.145600
    6  N  1  Z    0.076628  -0.009024   0.019034   0.000575  -0.074176
    7  N  1  X    0.262979  -0.284977   0.599850  -0.292890   0.417779
    8  N  1  Y    0.416937   0.420372   1.130061   0.021815   0.488432
    9  N  1  Z   -0.155007  -0.111665  -0.197708   0.167064   0.784407
   10  N  1 XX   -0.181755  -0.168005  -0.024645   0.029968   0.010485
   11  N  1 YY   -0.084176   0.145807  -0.054655   0.030317   0.088202
   12  N  1 ZZ    0.265931   0.022199   0.079300  -0.060285  -0.098687
   13  N  1 XY    0.096078  -0.125352   0.019445  -0.041591   0.070256
   14  N  1 XZ   -0.022237   0.251623  -0.072196  -0.146676  -0.027319
   15  N  1 YZ   -0.030936  -0.123762   0.081474   0.096147   0.038365
   16  H  2  S   -0.396075  -0.152721  -0.203423  -0.286484  -0.641474
   17  H  2  S   -0.105549  -0.074559  -0.058598   0.016403  -0.030365
   18  H  2  X    0.301827  -0.023833  -0.447645  -0.150931   0.200963
   19  H  2  Y   -0.092451   0.002625  -0.321719  -0.363045  -0.088031
   20  H  2  Z    0.380413  -0.293881   0.505812   0.188875  -0.300774
   21  H  3  S    0.050120   0.200517   0.780433  -0.148505  -0.174349
   22  H  3  S   -0.058645   0.149087   0.433460  -0.084579  -0.058948
   23  H  3  X    0.025992   0.573181  -0.125654   0.508906  -0.155051
   24  H  3  Y    0.042297  -0.259510  -0.111262  -0.236552  -0.029811
   25  H  3  Z    0.280819  -0.069897  -0.361682  -0.032324  -0.784778
   26  H  4  S   -0.383410   0.209912  -0.074307   0.088946  -0.672830
   27  H  4  S   -0.117886   0.125330  -0.050012  -0.041107  -0.167169
   28  H  4  X   -0.253671  -0.103744   0.011563   0.248646  -0.162753
   29  H  4  Y    0.230408  -0.135568  -0.258261   0.564346   0.047896
   30  H  4  Z    0.387127   0.424603   0.242209  -0.387288   0.032151

                     21         22         23         24         25
                    1.6081     1.8264     1.8846     1.9880     2.0946
                     A          A          A          A          A   
    1  N  1  S   -0.066347   0.014894  -0.085155   0.028891   0.025595
    2  N  1  S   -0.135341   0.150743  -0.193204   0.103383   0.051803
    3  N  1  S    0.250495   1.128268  -0.371774   0.611855  -0.036980
    4  N  1  X   -0.212290   0.220506   0.218777  -0.088208   0.105521
    5  N  1  Y    0.031127   0.326148   0.481316  -0.150174  -0.096069
    6  N  1  Z   -0.014309   0.264044  -0.030012   0.074554   0.015559
    7  N  1  X   -0.271701   0.118963  -0.006565  -0.167283  -0.137694
    8  N  1  Y    0.456589   0.305248   0.050807  -0.153952   0.060758
    9  N  1  Z    0.123558   0.424745  -0.051136   0.416532   0.003031
   10  N  1 XX    0.123086   0.128438  -0.350573  -0.516642  -0.294278
   11  N  1 YY   -0.056750  -0.055913   0.078243  -0.265320   0.207135
   12  N  1 ZZ   -0.066335  -0.072525   0.272331   0.781962   0.087142
   13  N  1 XY    0.020443  -0.143951   0.408860   0.325704  -0.143318
   14  N  1 XZ    0.258530  -0.180933   0.036097   0.031246  -0.005995
   15  N  1 YZ   -0.147864  -0.123044  -0.117546   0.197779   0.008674
   16  H  2  S   -0.073819  -0.228862   0.104843  -0.110748   0.311181
   17  H  2  S   -0.429258  -0.380602  -0.078279  -0.098714   0.350388
   18  H  2  X    0.268961   0.224471  -0.222154  -0.095643   0.946461
   19  H  2  Y    0.328499   0.736617   0.099887   0.330228  -0.540732
   20  H  2  Z    0.567388   0.317836   0.161430  -0.322401   0.123283
   21  H  3  S    0.071431  -0.103021   0.025287  -0.247107  -0.015860
   22  H  3  S   -0.004993   0.011894   0.397738  -0.322060   0.002379
   23  H  3  X    0.346416  -0.056669   0.440753  -0.169197  -0.102494
   24  H  3  Y   -0.279195  -0.224659   0.801983  -0.631162  -0.012852
   25  H  3  Z   -0.155459  -0.474100  -0.328884  -0.090157   0.010290
   26  H  4  S   -0.225410  -0.225181   0.124803  -0.046545  -0.278155
   27  H  4  S    0.376799  -0.342570  -0.073061   0.063082  -0.344469
   28  H  4  X   -0.246594   0.520083   0.202980   0.178705   0.907261
   29  H  4  Y   -0.344238   0.408092  -0.104269   0.073305  -0.653620
   30  H  4  Z   -0.541497   0.444211  -0.039857  -0.323424  -0.106968

                     26         27         28         29
                    2.1899     2.6413     2.7274     2.8769
                     A          A          A          A   
    1  N  1  S   -0.034426  -0.142906  -0.013953  -0.004252
    2  N  1  S   -0.045622  -0.204083   0.082495   0.097293
    3  N  1  S    0.423663   0.974693   1.457507   1.372041
    4  N  1  X    0.036227   0.201311   0.120705  -0.327915
    5  N  1  Y   -0.030492   0.403159  -0.285393  -0.203755
    6  N  1  Z    0.043024   0.121492   0.213601   0.165470
    7  N  1  X    0.466969   0.629760   0.299664  -0.526453
    8  N  1  Y   -0.244058   1.256386  -0.422028  -0.299798
    9  N  1  Z    0.206908   0.351785   0.276037   0.171130
   10  N  1 XX   -0.312570   0.001937   0.521712  -0.802690
   11  N  1 YY    0.228374   0.171408  -0.026017   1.365893
   12  N  1 ZZ    0.084195  -0.173345  -0.495694  -0.563203
   13  N  1 XY   -0.307292  -0.079426   1.103083   0.321120
   14  N  1 XZ    0.754437   0.608652   0.454936  -0.386431
   15  N  1 YZ   -0.426241   1.179570  -0.174758   0.020888
   16  H  2  S   -0.020482  -0.930296   0.293283  -0.774241
   17  H  2  S    0.146834  -0.332157   0.197186  -0.246892
   18  H  2  X   -0.272622   0.009116  -0.001963  -0.164189
   19  H  2  Y   -0.171857   0.663263  -0.389031   0.716166
   20  H  2  Z    0.140747   0.296344  -0.065494   0.465430
   21  H  3  S   -0.119650   0.675695  -0.917516  -1.218216
   22  H  3  S   -0.067151   0.321659  -0.284951  -0.363828
   23  H  3  X   -0.632995   0.161231  -0.142450  -0.542288
   24  H  3  Y    0.138304   0.487674  -0.743985  -0.760180
   25  H  3  Z   -0.104692   0.184351   0.317188   0.385116
   26  H  4  S   -0.229789  -0.763825  -0.973152   0.466086
   27  H  4  S   -0.246348  -0.251087  -0.377388   0.182321
   28  H  4  X    0.192732   0.423048   0.806311  -0.420776
   29  H  4  Y    0.563514   0.176257   0.227359  -0.153620
   30  H  4  Z   -0.177535   0.244785   0.567365  -0.170750
 .....DONE WITH MCSCF ITERATIONS.....
 CPU     0: STEP CPU TIME=    10.42 TOTAL CPU TIME=         11.5 (      0.2 MIN)
 TOTAL WALL CLOCK TIME=         11.5 SECONDS, CPU UTILIZATION IS    99.91%

     ----------------------------------------------------------------
     PROPERTY VALUES FOR THE MCSCF SELF-CONSISTENT FIELD WAVEFUNCTION
     ----------------------------------------------------------------

          -----------------
          ENERGY COMPONENTS
          -----------------

         WAVEFUNCTION NORMALIZATION =       1.0000000000

                ONE ELECTRON ENERGY =     -93.9288558491
                TWO ELECTRON ENERGY =      26.9920866680
           NUCLEAR REPULSION ENERGY =      11.2284184367
                                      ------------------
                       TOTAL ENERGY =     -55.7083507444

 ELECTRON-ELECTRON POTENTIAL ENERGY =      26.9920866680
  NUCLEUS-ELECTRON POTENTIAL ENERGY =    -149.6654543677
   NUCLEUS-NUCLEUS POTENTIAL ENERGY =      11.2284184367
                                      ------------------
             TOTAL POTENTIAL ENERGY =    -111.4449492630
               TOTAL KINETIC ENERGY =      55.7365985186
                 VIRIAL RATIO (V/T) =       1.9994931916

          ---------------------------------------
          MULLIKEN AND LOWDIN POPULATION ANALYSES
          ---------------------------------------

     ATOMIC MULLIKEN POPULATION IN EACH MOLECULAR ORBITAL

                      1          2          3          4          5

                  2.000000   1.980522   1.655559   1.649494   1.639248

    1             2.000727   1.353383   1.418998   0.944929   1.180112
    2            -0.000177   0.207813   0.009120   0.219005   0.229485
    3            -0.000339   0.181458   0.218477   0.257175   0.008687
    4            -0.000211   0.237867   0.008964   0.228385   0.220964

                      6          7          8

                  0.030139   0.026919   0.018119

    1             0.013592   0.013982   0.009529
    2             0.012095   0.002100   0.000494
    3             0.000532   0.001088   0.007951
    4             0.003919   0.009749   0.000146
 WARNING! MCSCF POPULATIONS SHOWN ABOVE ARE FOR THE NATURAL ORBITALS.
 IGNORE THE ABOVE DATA FOR MCSCF FUNCTIONS WHICH ARE NOT OF -FORS- TYPE.
 THE FOLLOWING POPULATIONS ARE CORRECT FOR ANY MCSCF WAVEFUNCTION.

               ----- POPULATIONS IN EACH AO -----
                             MULLIKEN      LOWDIN
              1  N  1  S      2.00237     1.90141
              2  N  1  S      0.81826     0.57790
              3  N  1  S      0.69056     0.40703
              4  N  1  X      0.72943     0.66699
              5  N  1  Y      0.65345     0.57450
              6  N  1  Z      0.85331     0.80265
              7  N  1  X      0.38396     0.45442
              8  N  1  Y      0.26700     0.39172
              9  N  1  Z      0.52140     0.55815
             10  N  1 XX      0.00043     0.15753
             11  N  1 YY      0.00321     0.18467
             12  N  1 ZZ      0.00140     0.14262
             13  N  1 XY      0.00490     0.00638
             14  N  1 XZ      0.00557     0.00823
             15  N  1 YZ      0.00000     0.01130
             16  H  2  S      0.57081     0.43476
             17  H  2  S      0.05474     0.15006
             18  H  2  X      0.01037     0.03701
             19  H  2  Y      0.03001     0.04879
             20  H  2  Z      0.01401     0.03149
             21  H  3  S      0.59377     0.46039
             22  H  3  S      0.02471     0.14461
             23  H  3  X      0.01381     0.03140
             24  H  3  Y      0.03169     0.05798
             25  H  3  Z      0.01106     0.03195
             26  H  4  S      0.59778     0.45486
             27  H  4  S      0.05560     0.14932
             28  H  4  X      0.02821     0.05364
             29  H  4  Y      0.01216     0.03305
             30  H  4  Z      0.01604     0.03520

          ----- MULLIKEN ATOMIC OVERLAP POPULATIONS -----
          (OFF-DIAGONAL ELEMENTS NEED TO BE MULTIPLIED BY 2)

             1           2           3           4

    1    6.1041169
    2    0.2556961   0.4394184
    3    0.3138341  -0.0054842   0.3717533
    4    0.2616050  -0.0096960  -0.0050740   0.4629495

          TOTAL MULLIKEN AND LOWDIN ATOMIC POPULATIONS
       ATOM         MULL.POP.    CHARGE          LOW.POP.     CHARGE
    1 N             6.935252    0.064748         6.845502    0.154498
    2 H             0.679934    0.320066         0.702109    0.297891
    3 H             0.675029    0.324971         0.726325    0.273675
    4 H             0.709784    0.290216         0.726064    0.273936

          MULLIKEN SPHERICAL HARMONIC POPULATIONS
       ATOM           S       P       D      F      G      H      I    TOTAL
    1 N             3.51    3.41    0.02   0.00   0.00   0.00   0.00    6.94
    2 H             0.63    0.05    0.00   0.00   0.00   0.00   0.00    0.68
    3 H             0.62    0.06    0.00   0.00   0.00   0.00   0.00    0.68
    4 H             0.65    0.06    0.00   0.00   0.00   0.00   0.00    0.71

          ---------------------
          ELECTROSTATIC MOMENTS
          ---------------------

 POINT   1           X           Y           Z (BOHR)    CHARGE
                 0.000003    0.000003   -0.177185        1.00 (A.U.)
         DX          DY          DZ         /D/  (DEBYE)
     0.473530    0.593526    2.186541    2.314620
 ...... END OF PROPERTY EVALUATION ......
 CPU     0: STEP CPU TIME=     0.00 TOTAL CPU TIME=         11.5 (      0.2 MIN)
 TOTAL WALL CLOCK TIME=         11.5 SECONDS, CPU UTILIZATION IS    99.91%

     -------------------------------------------------
     GMC-PT/GMC-QDPT or general MCSCF input parameters
     -------------------------------------------------
 # of frozen core orbs. =         0 ->         0
 # of doubly occ. orbs. =         1
 # of active      orbs. =         7
 # of virtual     orbs. =        21
 # of active electrons  =         7
 # of states in CI      =         3
 Highest state in CI    =         3
 kstate =  1 1 1
 avecoe =  0.333 0.333 0.333
 State symmetry           = A           
 Assigned symmetry number = 1

 <<<Act. MO sym.: 1111111

 <<<Division of 1-ext.:  0
 <<<Division of 2-ext.:  0

     ------------------------
     Orbital canonicalization
     ------------------------

 MOs are canonicalized for core, virtual, and invariant-active orbital spaces.
 This is a part of the GMC-QDPT calculation.
 SCHWARZ INEQUALITY OVERHEAD:       465 INTEGRALS, T=        0.00
 DIRECT TRANSFORMATION SKIPS AO INTEGRAL STORAGE ON DISK.

 Averaged energy =     -55.708350744

 State #    1  Energy =     -55.842133713  S =  0.500
 State #    2  Energy =     -55.748173567  S =  0.500
 State #    3  Energy =     -55.534744953  S =  0.500

 Orbital energies for filled orbital space
  -15.986296
 Orbital energies for active orbital space
   -1.505471  -0.795155  -1.018193  -0.740935   0.195566
    0.236932   0.418522
 Orbital energies for external orbital space
    0.117454   0.195265   0.247248   0.526897   0.570396
    0.640869   0.857263   1.032309   1.113841   1.243284
    1.319242   1.476354   1.608063   1.826369   1.884611
    1.988018   2.094622   2.189878   2.641267   2.727374
    2.876923

 Zero values mean non-canonical orbitals.
 ... done with orbital canonicalization ...
 CPU     0: STEP CPU TIME=     0.61 TOTAL CPU TIME=         12.1 (      0.2 MIN)
 TOTAL WALL CLOCK TIME=         12.1 SECONDS, CPU UTILIZATION IS    99.92%

     --------------------------------------------
     PARTIAL TWO ELECTRON INTEGRAL TRANSFORMATION
     --------------------------------------------

 NUMBER OF CORE MOLECULAR ORBITALS     =    0
 NUMBER OF OCCUPIED MOLECULAR ORBITALS =    8
 TOTAL NUMBER OF MOLECULAR ORBITALS    =   29
 TOTAL NUMBER OF ATOMIC ORBITALS       =   30
 THRESHOLD FOR KEEPING TRANSFORMED 2E- INTEGRALS = 1.000E-09
 AO INTEGRALS WILL BE CALCULATED IN DIRECT MODE...
 DIRECT TRANSFORMATION SKIPS AO INTEGRAL STORAGE ON DISK.
 SCHWARZ INEQUALITY OVERHEAD:       465 INTEGRALS, T=        0.00

 PLAN A: REQUIREMENTS FOR FULLY IN-MEMORY TRANSFORMATION:
 # OF WORDS AVAILABLE =            100000000
 # OF WORDS NEEDED    =               221798

 PARALLEL ONLY WORKS WITH THE SEGMENTED ALGORITHM.
 ADJUSTING MEMORY TO USE SEGMENTED ALGORITHM.


 PLAN B: REQUIREMENTS FOR THE SEGMENTED TRANSFORMATION:
       MINIMUM=         124148 WORDS FOR 1 MOLECULAR ORBITAL PER PASS
       MAXIMUM=         221798 WORDS FOR ALL MOLECULAR ORBITALS IN 1 PASS
              (          13950 EXTRA WORDS INCLUDES 1 EXTRA ORBITAL/PASS)
 THIS RUN USES=         221798 WORDS,
 DISTRIBUTING   1 PASSES EACH CONTAINING     8 ORBITALS OVER   1 PROCESSORS.

 CHOOSING SEGMENTED PARTIAL TRANSFORMATION...
 DIRECT TRANSFORMATION SKIPS AO INTEGRAL STORAGE ON DISK.
 PASS #   1 TOOK        0.04 SECONDS.
 TOTAL NUMBER OF TRANSFORMED 2E- INTEGRALS KEPT =        29226
 ... END OF INTEGRAL TRANSFORMATION ...
 CPU     0: STEP CPU TIME=     0.04 TOTAL CPU TIME=         12.1 (      0.2 MIN)
 TOTAL WALL CLOCK TIME=         12.2 SECONDS, CPU UTILIZATION IS    99.84%

     --------     ------------------------------------------
     GMC-QDPT     Program written by H.Nakano (Kyushu Univ.)
     --------     ------------------------------------------

 *** Reference space

 Reference type: ORMAS (= Occupation restricted multiple active space)
 # of orbitals          =  7
 # of minimum electrons =  7
 # of maximum electrons =  7
 State symmetry    =    1 (input)
 2*Sz              =    1 (input)
 Spin multiplicity =    2 (input)
 Dimension of reference space =      1225  (from      3432 walks)

 Dimension of reference space =      1225  (from      1225 walks)

 <<<Ionized spaces for Ref-CI:
      0:         1225 /   -1-0:         1960 /  0-1-0:         2891

 ***                    ***
 *** Reference space CI ***
 ***                    ***

 Converged after   30 iterations

 Reference wavefunctions:

 State #    1  Energy =     -55.842133713  S =  0.500

      Det      Coef    Occupancy (Ignoring core)
      ---      ----    --------- --------- -----
        1   -0.974627  11110001110000
       71   -0.055108  11110001011000
      393   -0.074393  10110101010010
      717   -0.058179  11010011100001

 State #    2  Energy =     -55.748173567  S =  0.500

      Det      Coef    Occupancy (Ignoring core)
      ---      ----    --------- --------- -----
        1   -0.056829  11110001110000
       71    0.980946  11110001011000
      822   -0.057972  11010011001001

 State #    3  Energy =     -55.534744953  S =  0.500

      Det      Coef    Occupancy (Ignoring core)
      ---      ----    --------- --------- -----
       36    0.975231  11110001101000
      463    0.076346  10110101001010

 Davidson method: CPU/Wall time =           0.42 /           0.43 sec.

 Oscillator strength (invalid if E(1)/=E(GS)):
 -----------------------------------------
   State                        f
 -----------------------------------------
     2     F(REF-CI)=        0.0003602532
     3     F(REF-CI)=        0.0044242060
 -----------------------------------------

 Dipole moment matrix elements, x, y, z, in A.U.

 Dimension of ionized spaces for PT:
 (N-2) space:         1715 /  (N-1) space:         2842 /  N space:         2891
 (N+1) space:         2842 /  (N+2) space:         1715

 <<<Ionized spaces for internal:
         0:         1225 /      -1-0:         1960 /     0-1-0:         2891
  -1-0-1-0:         2842 / 0-1-0-1-0:         3381

 Diagonal elements of averaged one-particle density matrix:
       2       3       4       5       6       7       8
  0.9929  0.9840  0.9876  0.9917  0.0167  0.0165  0.0106
  0.9875  0.6554  0.6627  0.6626  0.0123  0.0118  0.0076

 Orbital energies:
 -------- Doubly-occupied orbitals (highest several orbs.) -------
             1
 -1.598630D+01
 -------- Active orbitals ----------------------------------------
             2            3            4            5            6
 -1.505471D+00-7.951548D-01-1.018193D+00-7.409354D-01 1.955661D-01
             7            8
  2.369323D-01 4.185224D-01
 -------- External orbitals (lowest several orbs.) ---------------
             9           10           11           12           13
  1.174543D-01 1.952647D-01 2.472477D-01 5.268973D-01 5.703957D-01
            14           15           16           17           18
  6.408689D-01 8.572634D-01 1.032309D+00 1.113841D+00 1.243284D+00

 *** Quasi-degeneracy checking

 === Det (|Ci| > 1.0D-01 and dE < 5.0D-03)

 # of small denominators (single excitations)
 State       dEmin  dE < 5.0D-03  dE < 5.0D-04  dE < 5.0D-05  dE < 5.0D-06
 ----- ----------- ------------- ------------- ------------- -------------
     1    5.00D-03             0             0             0             0
     2    5.00D-03             0             0             0             0
     3    5.00D-03             0             0             0             0

 # of small denominators (double excitations)
 State       dEmin  dE < 5.0D-03  dE < 5.0D-04  dE < 5.0D-05  dE < 5.0D-06
 ----- ----------- ------------- ------------- ------------- -------------
     1    5.00D-03             0             0             0             0
     2    5.00D-03             0             0             0             0
     3    5.00D-03             0             0             0             0

 *** Zeroth-Order Setup (Granovsky's zeroth-order vectors)
 Zeroth-order effective Hamiltonian
  (= Sum_i e(i)*<I|a+(i)a(i)|J> ):
                   1            2            3
     1 -7.271373D+00
     2 -5.243290D-03-7.240646D+00
     3  6.439835D-04-1.685595D-03-7.001257D+00

 Zeroth-order vectors:
 State #    1
       MC st            1           2           3
       Coeff    9.865D-01   1.636D-01  -1.327D-03
 State #    2
       MC st            2           1           3
       Coeff   -9.865D-01   1.636D-01  -7.413D-03
 State #    3
       MC st            3           2           1
       Coeff    1.000D+00  -7.096D-03   2.522D-03

 *** GMC-QDPT computation

 (Integral reading:  CPU/Wall time =           0.00 /           0.00 sec.)

 One-external:
   0 -ionized terms: CPU/Wall time =           0.03 /           0.03 sec.
 (-1)-ionized terms: CPU/Wall time =           0.09 /           0.09 sec.
 (+1)-ionized terms: CPU/Wall time =           0.02 /           0.02 sec.
 (+1)-ionized terms: CPU/Wall time =           0.01 /           0.00 sec.
 (+2)-ionized terms: CPU/Wall time =           0.00 /           0.01 sec.

 Internal:
 # of macro loops for internal contribution =         1 (input)
 Loop:    1
 Dimension of internal CISD space     =         0  (after screening)
 Space construction: CPU/Wall time =           0.02 /           0.01 sec.
 Internal terms:     CPU/Wall time =           0.00 /           0.00 sec.

 Two-external:
   0 -ionized terms: CPU/Wall time =           0.06 /           0.06 sec.
 (-1)-ionized terms: CPU/Wall time =           1.00 /           1.00 sec.
 (-2)-ionized terms: CPU/Wall time =           0.16 /           0.17 sec.

 Total time:         CPU/Wall time =           1.39 /           1.39 sec.

 ***                  ***
 *** GMC-QDPT Results ***
 ***                  ***

 Diagonal elements of effective Hamiltonian:
 Heff(  1) =   -55.93880392
 Heff(  2) =   -55.85778032
 Heff(  3) =   -55.64634316

 Off-diagonal elements of effective Hamiltonian:
                   1            2
     2 -1.346030D-02
     3 -3.057156D-05-1.469057D-03

 ******** GMC-QDPT energies ********
 ----------------------------------------------------------------------------
   State                        1st order                           2nd order
 ----------------------------------------------------------------------------
     1     E(REF-CI)=      -55.8421337131   E(GMC-QDPT2)=      -55.9409817699
     2     E(REF-CI)=      -55.7481735669   E(GMC-QDPT2)=      -55.8556126989
     3     E(REF-CI)=      -55.5347449533   E(GMC-QDPT2)=      -55.6463329351
 ----------------------------------------------------------------------------

 Excitation energies (invalid if E(1)/=E(GS)):
 ----------------------------------------------------------------------------
   State                        1st order                           2nd order
 ----------------------------------------------------------------------------

     TZ Sorted GMC-PT ENERGIES:
         1      -55.9409817699
         2      -55.8556126989
         3      -55.6463329351
     2     E(REF-CI)=        2.5567871 eV   E(GMC-QDPT2)=        2.3230119 eV
     3     E(REF-CI)=        8.3644785 eV   E(GMC-QDPT2)=        8.0178073 eV
 ----------------------------------------------------------------------------

 Main characters of perturbed GMC-QDPT states:

 State #    1  Energy =     -55.940981770  S =  0.500

      Det      Coef    Occupancy (Ignoring core)
      ---      ----    --------- --------- -----
        1   -0.974836  11110001110000
       71   -0.051224  11110001011000
      393   -0.074457  10110101010010
      717   -0.058159  11010011100001

 State #    2  Energy =     -55.855612699  S =  0.500

      Det      Coef    Occupancy (Ignoring core)
      ---      ----    --------- --------- -----
        1   -0.052964  11110001110000
       71    0.981158  11110001011000
      822   -0.057984  11010011001001

 State #    3  Energy =     -55.646332935  S =  0.500

      Det      Coef    Occupancy (Ignoring core)
      ---      ----    --------- --------- -----
       36    0.975222  11110001101000
      463    0.076340  10110101001010

 <<<Max |V/de| = 3.004D-02  Thresh = 1.000D+00

 Oscillator strength (invalid if E(1)/=E(GS)):
 ----------------------------------------------------------------------------
   State                        1st order                           2nd order
 ----------------------------------------------------------------------------
     2     F(REF-CI)=        0.0003602532     F(GMC-PT2)=        0.0003381842
     3     F(REF-CI)=        0.0044242060     F(GMC-PT2)=        0.0042917960
 ----------------------------------------------------------------------------

 Dipole moment matrix elements, x, y, z, in A.U.
States    1    1        0.1971040743        0.2727837073        0.7201621052
States    1    2       -0.0562229469        0.0169027368       -0.0499543191
States    1    3       -0.0540180569       -0.1137078990        0.0774678210
States    2    1       -0.0562229469        0.0169027368       -0.0499543191
States    2    2        0.1468843199        0.0817193774        0.2732142673
States    2    3        0.0973105903       -0.0735824751       -0.0002592387
States    3    1       -0.0540180569       -0.1137078990        0.0774678210
States    3    2        0.0973105903       -0.0735824751       -0.0002592387
States    3    3        0.3536066885        0.5156287424        0.2379499071

 Oscillator strength (valid only when positive): 
 ----------------------------------------------------------------------------
  States                        1st order                           2nd order
 ----------------------------------------------------------------------------
  1  1     F(REF-CI)=        0.0000000000     F(GMC-PT2)=        0.0000000000
  1  2     F(REF-CI)=       -0.0003602532     F(GMC-PT2)=       -0.0003381842
  1  3     F(REF-CI)=       -0.0044242060     F(GMC-PT2)=       -0.0042917960
  2  1     F(REF-CI)=        0.0003602532     F(GMC-PT2)=        0.0003381842
  2  2     F(REF-CI)=        0.0000000000     F(GMC-PT2)=        0.0000000000
  2  3     F(REF-CI)=       -0.0021249781     F(GMC-PT2)=       -0.0020765853
  3  1     F(REF-CI)=        0.0044242060     F(GMC-PT2)=        0.0042917960
  3  2     F(REF-CI)=        0.0021249781     F(GMC-PT2)=        0.0020765853
  3  3     F(REF-CI)=        0.0000000000     F(GMC-PT2)=        0.0000000000
 CPU     0: STEP CPU TIME=     1.89 TOTAL CPU TIME=         14.0 (      0.2 MIN)
 TOTAL WALL CLOCK TIME=         14.0 SECONDS, CPU UTILIZATION IS    99.93%

     !!! DIABATIZATION FOR REF CI STATES !!!

 *******************************************************
          $DMO GROUP FOUND IN THE INPUT.
        DIABATIZATION OF ADIABATIC STATES BEGINS.
     PROGRAMMED BY TAO ZENG (CARLETON UNIVERSITY).
               Email: toby.zeng@carleton.ca
     See T. Zeng, J. Chem. Phys. 2017, 146, 144103
 *******************************************************

 *************************************************************************
     STEP 1: TRANSFORMATION OF ADIABATIC STATES TO THE DMO REPRESENTATION
         See Atchity and Ruedenberg, J. Chem. Phys. 1999, 111, 2910
 *************************************************************************

Read in Diabatic Molecualr Orbitals:

                      1          2          3          4          5

    1  N  1  S    0.008609   0.000000   0.000000  -0.013219   0.279491
    2  N  1  S    0.442914  -0.000000   0.000000  -0.184329   0.867803
    3  N  1  S    0.276913   0.000000  -0.000000  -0.288315   0.144236
    4  N  1  X   -0.000000   0.493155  -0.024636  -0.000000  -0.000000
    5  N  1  Y    0.000000   0.024636   0.493155  -0.000000   0.000000
    6  N  1  Z    0.090197   0.000000   0.000000   0.593421   0.705309
    7  N  1  X   -0.000000   0.210628  -0.010522   0.000000   0.000000
    8  N  1  Y    0.000000   0.010522   0.210628  -0.000000  -0.000000
    9  N  1  Z   -0.004381   0.000000   0.000000   0.381592  -0.106092
   10  N  1 XX   -0.000457   0.010719  -0.000535  -0.012387   0.006153
   11  N  1 YY   -0.000457  -0.010719   0.000535  -0.012387   0.006153
   12  N  1 ZZ    0.000914  -0.000000   0.000000   0.024773  -0.012306
   13  N  1 XY    0.000000  -0.000618  -0.012377  -0.000000   0.000000
   14  N  1 XZ   -0.000000   0.026529  -0.001325  -0.000000   0.000000
   15  N  1 YZ    0.000000   0.001325   0.026529  -0.000000   0.000000
   16  H  2  S    0.194462  -0.176074   0.343485   0.112865  -0.523343
   17  H  2  S    0.003574  -0.023812   0.046452   0.024014  -0.054445
   18  H  2  X    0.018760   0.009101   0.022834   0.009336  -0.039151
   19  H  2  Y   -0.032493   0.022287  -0.020044  -0.016171   0.067811
   20  H  2  Z   -0.009251   0.008464  -0.016511   0.018769  -0.010566
   21  H  3  S    0.194462  -0.209430  -0.324227   0.112865  -0.523343
   22  H  3  S    0.003574  -0.028322  -0.043847   0.024014  -0.054445
   23  H  3  X    0.018760   0.006781  -0.023627   0.009336  -0.039151
   24  H  3  Y    0.032493  -0.024174  -0.017723   0.016171  -0.067811
   25  H  3  Z   -0.009251   0.010067   0.015585   0.018769  -0.010566
   26  H  4  S    0.194462   0.385503  -0.019258   0.112865  -0.523343
   27  H  4  S    0.003574   0.052134  -0.002604   0.024014  -0.054445
   28  H  4  X   -0.037519  -0.032295   0.001613  -0.018672   0.078302
   29  H  4  Y    0.000000   0.001067   0.021353  -0.000000   0.000000
   30  H  4  Z   -0.009251  -0.018530   0.000926   0.018769  -0.010566

                      6          7

    1  N  1  S    0.000000  -0.000000
    2  N  1  S    0.000000  -0.000000
    3  N  1  S   -0.000000   0.000000
    4  N  1  X   -0.930415  -0.002083
    5  N  1  Y   -0.002083   0.930415
    6  N  1  Z   -0.000000   0.000000
    7  N  1  X   -0.046866  -0.000105
    8  N  1  Y   -0.000105   0.046866
    9  N  1  Z   -0.000000   0.000000
   10  N  1 XX    0.001538   0.000003
   11  N  1 YY   -0.001538  -0.000003
   12  N  1 ZZ   -0.000000   0.000000
   13  N  1 XY   -0.000004   0.001776
   14  N  1 XZ    0.039985   0.000090
   15  N  1 YZ    0.000090  -0.039985
   16  H  2  S   -0.362630  -0.631354
   17  H  2  S   -0.065964  -0.114846
   18  H  2  X    0.002763  -0.037520
   19  H  2  Y    0.037435   0.040736
   20  H  2  Z    0.001882   0.003276
   21  H  3  S   -0.365454   0.629724
   22  H  3  S   -0.066477   0.114549
   23  H  3  X    0.002595   0.037532
   24  H  3  Y   -0.037617   0.040567
   25  H  3  Z    0.001896  -0.003268
   26  H  4  S    0.728084   0.001630
   27  H  4  S    0.132441   0.000297
   28  H  4  X   -0.062317  -0.000140
   29  H  4  Y    0.000055  -0.024345
   30  H  4  Z   -0.003778  -0.000008

NUMBER OF SUB ACTIVE SPACES:   1
ROTATE ACTIVE MOS TO DMOS IN EACH SUB-SPACE

SPACE  1:

OVERLAP BETWEEN ORTHONORMAL AND PRE-ORTHONORMAL REF. DMOS

             1           2           3           4           5

    1    0.9825304   0.0153739   0.0107845  -0.0064755  -0.0039708
    2    0.0153739   0.9235249   0.0729663   0.0258221  -0.0494427
    3    0.0107845   0.0729663   1.0056258   0.0262996  -0.0606649
    4   -0.0064755   0.0258221   0.0262996   0.9946971  -0.0077011
    5   -0.0039708  -0.0494427  -0.0606649  -0.0077011   1.1269267
    6   -0.0012670  -0.0551970   0.0686393   0.0319832  -0.0208736
    7    0.0028201  -0.0602285  -0.0235221  -0.0440362   0.0636551

             6           7

    1   -0.0012670   0.0028201
    2   -0.0551970  -0.0602285
    3    0.0686393  -0.0235221
    4    0.0319832  -0.0440362
    5   -0.0208736   0.0636551
    6    1.0454513   0.0070846
    7    0.0070846   1.0268338
REFERENCE DMOS AFTER ORTHONORMALIZATION:

                      1          2          3          4          5

    1  N  1  S    0.009403   0.011834   0.013757  -0.012799   0.250168
    2  N  1  S    0.451936   0.033594   0.041660  -0.181410   0.777596
    3  N  1  S    0.280276   0.008871   0.010429  -0.288815   0.129329
    4  N  1  X   -0.008664   0.484292   0.000043   0.016668   0.003453
    5  N  1  Y   -0.008873   0.042303   0.509669   0.027369  -0.023454
    6  N  1  Z    0.097922   0.012621   0.020614   0.600896   0.632572
    7  N  1  X   -0.003396   0.229495  -0.024128  -0.003740   0.007458
    8  N  1  Y   -0.002440  -0.002427   0.212361  -0.002839   0.008218
    9  N  1  Z   -0.002014  -0.014158  -0.013276   0.384986  -0.094312
   10  N  1 XX   -0.000707   0.012515  -0.000930  -0.012808   0.005932
   11  N  1 YY   -0.000368  -0.011351   0.002066  -0.012184   0.005038
   12  N  1 ZZ    0.001075  -0.001164  -0.001137   0.024993  -0.010970
   13  N  1 XY    0.000126   0.000407  -0.012410   0.000355  -0.000719
   14  N  1 XZ   -0.000388   0.031871  -0.006200  -0.001893   0.001723
   15  N  1 YZ   -0.000131  -0.002989   0.026051  -0.002260   0.003422
   16  H  2  S    0.199042  -0.309260   0.346284   0.096729  -0.431809
   17  H  2  S    0.003984  -0.043813   0.048384   0.021087  -0.042583
   18  H  2  X    0.018837   0.003997   0.019272   0.007129  -0.031494
   19  H  2  Y   -0.033314   0.034683  -0.020002  -0.016060   0.059065
   20  H  2  Z   -0.009300   0.010165  -0.018233   0.019075  -0.010036
   21  H  3  S    0.201348  -0.219143  -0.305525   0.164158  -0.531197
   22  H  3  S    0.004069  -0.028185  -0.038871   0.032645  -0.059085
   23  H  3  X    0.019046   0.009526  -0.026275   0.011295  -0.037749
   24  H  3  Y    0.033406  -0.029003  -0.016714   0.020287  -0.065206
   25  H  3  Z   -0.009619   0.008995   0.013920   0.018076  -0.008072
   26  H  4  S    0.191932   0.444749  -0.129958   0.082359  -0.440188
   27  H  4  S    0.002953   0.063170  -0.019086   0.018785  -0.044377
   28  H  4  X   -0.037671  -0.035324   0.013058  -0.016255   0.067626
   29  H  4  Y   -0.000135  -0.001947   0.021087  -0.001494   0.002347
   30  H  4  Z   -0.009021  -0.021472   0.001844   0.019436  -0.010241

                      6          7

    1  N  1  S    0.005222  -0.015110
    2  N  1  S    0.021030  -0.054446
    3  N  1  S    0.011680  -0.020494
    4  N  1  X   -0.865073   0.032871
    5  N  1  Y   -0.040794   0.923191
    6  N  1  Z   -0.006237  -0.012458
    7  N  1  X   -0.030952   0.012406
    8  N  1  Y   -0.014261   0.049837
    9  N  1  Z   -0.013684   0.021322
   10  N  1 XX    0.002704  -0.000218
   11  N  1 YY   -0.001723  -0.001444
   12  N  1 ZZ   -0.000980   0.001661
   13  N  1 XY    0.000797   0.001523
   14  N  1 XZ    0.040420   0.001349
   15  N  1 YZ   -0.001382  -0.038818
   16  H  2  S   -0.393256  -0.591979
   17  H  2  S   -0.069336  -0.109294
   18  H  2  X    0.000993  -0.033664
   19  H  2  Y    0.040333   0.036710
   20  H  2  Z    0.002706   0.004816
   21  H  3  S   -0.360766   0.635321
   22  H  3  S   -0.065473   0.114515
   23  H  3  X    0.003368   0.039257
   24  H  3  Y   -0.038585   0.042510
   25  H  3  Z    0.000656  -0.001038
   26  H  4  S    0.717029   0.050043
   27  H  4  S    0.129772   0.006210
   28  H  4  X   -0.060486  -0.006277
   29  H  4  Y   -0.001183  -0.023541
   30  H  4  Z   -0.005681   0.000307

 -------------------------------------------
       MAXIMIZING MORMO OVERLAP TERM        
 -------------------------------------------
   SWEEP    VALUE       PROGRESS
     0     5.38048
     1     6.94854     1.56805433
     2     6.96076     0.01222124
     3     6.96076     0.00000066
     4     6.96076     0.00000000
     5     6.96076     0.00000000
 THE ROTATION IS DONE
FLIPPING SIGN FOR ORBITAL   7
ACTIVE ORBITALS AFTER MORMO:

                      1          2          3          4          5

    1  N  1  S    0.008030   0.016193   0.015457  -0.012196   0.206368
    2  N  1  S    0.433633   0.034720   0.028178  -0.187318   0.720487
    3  N  1  S    0.323120  -0.014546   0.006450  -0.277260   0.198066
    4  N  1  X   -0.005379   0.447331   0.017496   0.023345  -0.005818
    5  N  1  Y   -0.011518   0.059489   0.494298   0.028115  -0.032260
    6  N  1  Z    0.086826   0.024841   0.030433   0.601922   0.605293
    7  N  1  X   -0.008515   0.283640  -0.075309  -0.029473   0.027022
    8  N  1  Y   -0.001209  -0.053405   0.203730  -0.032059   0.031262
    9  N  1  Z    0.021068  -0.038336  -0.036464   0.384569  -0.057793
   10  N  1 XX   -0.003117   0.017458  -0.002902  -0.011326   0.024518
   11  N  1 YY    0.002794  -0.017107   0.003628  -0.010586  -0.029776
   12  N  1 ZZ    0.000323  -0.000350  -0.000726   0.021912   0.005258
   13  N  1 XY    0.004286   0.000778  -0.009977  -0.002138  -0.040171
   14  N  1 XZ    0.001204   0.023759  -0.006748  -0.001020  -0.020899
   15  N  1 YZ    0.002844  -0.004067   0.017928  -0.003897  -0.022254
   16  H  2  S    0.185761  -0.219601   0.331586   0.097791  -0.437035
   17  H  2  S    0.004799  -0.104517   0.082369   0.028960  -0.054026
   18  H  2  X    0.002893   0.017887   0.001527   0.002804  -0.025027
   19  H  2  Y   -0.031731   0.020395  -0.029772  -0.015336   0.047797
   20  H  2  Z   -0.008932   0.003318  -0.022113   0.017681  -0.016486
   21  H  3  S    0.182601  -0.219576  -0.325032   0.133159  -0.525304
   22  H  3  S   -0.001363  -0.027294  -0.031779   0.033564  -0.060954
   23  H  3  X    0.015721   0.006807  -0.024688   0.005739  -0.027795
   24  H  3  Y    0.031617  -0.028047  -0.028410   0.012552  -0.056987
   25  H  3  Z   -0.003454   0.005466   0.009375   0.021753  -0.010412
   26  H  4  S    0.185077   0.397314  -0.065792   0.092582  -0.456174
   27  H  4  S    0.002943   0.119955  -0.060115   0.024933  -0.057797
   28  H  4  X   -0.030387  -0.025496  -0.000728  -0.017040   0.056320
   29  H  4  Y   -0.011272  -0.017595   0.018279  -0.003539  -0.003315
   30  H  4  Z   -0.011250  -0.025787  -0.003896   0.017441  -0.012141

                      6          7

    1  N  1  S    0.042885  -0.072162
    2  N  1  S    0.095182  -0.155173
    3  N  1  S   -0.090067   0.117783
    4  N  1  X   -0.867019   0.009892
    5  N  1  Y   -0.015470   0.904065
    6  N  1  Z   -0.023244   0.002125
    7  N  1  X   -0.028868   0.057546
    8  N  1  Y   -0.061598   0.096210
    9  N  1  Z   -0.010647   0.030864
   10  N  1 XX    0.028883   0.025121
   11  N  1 YY   -0.038719  -0.008368
   12  N  1 ZZ    0.009836  -0.016753
   13  N  1 XY    0.021856  -0.008542
   14  N  1 XZ    0.022285  -0.012209
   15  N  1 YZ    0.016086  -0.046647
   16  H  2  S   -0.308398  -0.592589
   17  H  2  S   -0.132901  -0.161586
   18  H  2  X    0.030858  -0.023609
   19  H  2  Y    0.030679   0.040389
   20  H  2  Z    0.019826  -0.006591
   21  H  3  S   -0.350798   0.628448
   22  H  3  S   -0.067467   0.117632
   23  H  3  X   -0.008933   0.029157
   24  H  3  Y   -0.030246   0.053562
   25  H  3  Z   -0.005754   0.017331
   26  H  4  S    0.678010  -0.018570
   27  H  4  S    0.205708   0.041526
   28  H  4  X   -0.043020   0.008755
   29  H  4  Y   -0.010889  -0.041617
   30  H  4  Z   -0.009628  -0.017967

Actually Used Diabatic Molecualr Orbitals:

                      1          2          3          4          5

    1  N  1  S    0.008030   0.016193   0.015457  -0.012196   0.206368
    2  N  1  S    0.433633   0.034720   0.028178  -0.187318   0.720487
    3  N  1  S    0.323120  -0.014546   0.006450  -0.277260   0.198066
    4  N  1  X   -0.005379   0.447331   0.017496   0.023345  -0.005818
    5  N  1  Y   -0.011518   0.059489   0.494298   0.028115  -0.032260
    6  N  1  Z    0.086826   0.024841   0.030433   0.601922   0.605293
    7  N  1  X   -0.008515   0.283640  -0.075309  -0.029473   0.027022
    8  N  1  Y   -0.001209  -0.053405   0.203730  -0.032059   0.031262
    9  N  1  Z    0.021068  -0.038336  -0.036464   0.384569  -0.057793
   10  N  1 XX   -0.003117   0.017458  -0.002902  -0.011326   0.024518
   11  N  1 YY    0.002794  -0.017107   0.003628  -0.010586  -0.029776
   12  N  1 ZZ    0.000323  -0.000350  -0.000726   0.021912   0.005258
   13  N  1 XY    0.004286   0.000778  -0.009977  -0.002138  -0.040171
   14  N  1 XZ    0.001204   0.023759  -0.006748  -0.001020  -0.020899
   15  N  1 YZ    0.002844  -0.004067   0.017928  -0.003897  -0.022254
   16  H  2  S    0.185761  -0.219601   0.331586   0.097791  -0.437035
[...]

WEIGHT OF LISTED PROTOTYPES:   91.38%

     STATE:    3
 Group Ref#    Coefficients
     1    1   -0.003231
     2    2   -0.000726
     3    3    0.953648

WEIGHT OF LISTED PROTOTYPES:   90.95%

 --------------------------------------------------
 IN DIRECT MAX. DIABATIZATION FOR GMC-QDPT

 DIRECT MAXIMIZATION (DM) WITHOUT TRUNCATING ADIABATS
 EXPANSIONS INTO THE REFERENCE CONFIGURATION SPACE
 --------------------------------------------------

 -------------------------------------------
 - DM DIABT PT HAMILTONIAN MATRIX ELEMENTS -
 -------------------------------------------
                                            
 --- DIABATIC ENERGIES (DIAGONAL ELEMENT) ---       HARTREE            EV
 STATE #  1'S GMC-PT-LEVEL DIABATIC ENERGY=     -55.932322555       0.000000000
 STATE #  2'S GMC-PT-LEVEL DIABATIC ENERGY=     -55.812996557       3.247025784
 STATE #  3'S GMC-PT-LEVEL DIABATIC ENERGY=     -55.697608291       6.386900425

 --- DIABATIC COUPLINGS (OFF DIAGONAL ELEMENTS)---  HATREE            EV
 STATE #  1 &  2'S GMC-PT-LEVEL COUPLING  =      -0.029725091      -0.808860934
 STATE #  1 &  3'S GMC-PT-LEVEL COUPLING  =      -0.037546472      -1.021691538
 STATE #  2 &  3'S GMC-PT-LEVEL COUPLING  =       0.083166491       2.263075478

 ---------------------------------------
     - ROTATION TO DIABATIC STATES -    
 ---------------------------------------
 ROWS=ADIABATIC, COLUMNS=DIABATIC STATES

             1           2           3

    1    0.9814945   0.1665433   0.0945084
    2   -0.1012424   0.8702394  -0.4821134
    3    0.1625377  -0.4636235  -0.8709964

 ---------------------------------------
          - DIABATIC STATES -           
 ---------------------------------------

 State #    1  Energy =     -55.932322555

      Det      Coef        Coefp    Occupancy (Ignoring core)
      ---      ----        ----    --------- --------- -----
        1    0.935732   -0.935732  222+000
        8   -0.128922    0.128922  2-2+0+0
      386    0.098798   -0.098798  2+2+0-0
        7    0.088157    0.088157  22-+0+0
      351   -0.082342   -0.082342  22++0-0
        3   -0.081788   -0.081788  22-++00
      141    0.079384    0.079384  22++-00
        4   -0.076372    0.076372  2-2++00
      176    0.073790   -0.073790  2+2+-00
      393   -0.070850   -0.070850  202+020
       18   -0.070469    0.070469  2-2+00+
      736    0.067227   -0.067227  2+2+00-
      717   -0.066541   -0.066541  220+002
       16   -0.054728    0.054728  222000+
        6    0.047428   -0.047428  22200+0
      708    0.040912   -0.040912  2-++0+-
      402    0.038360   -0.038360  2+-+0-+
      215   -0.038294   -0.038294  022+200
      218    0.034924   -0.034924  +-2+-+0
      705   -0.034307   -0.034307  -2+++0-
      390    0.034294   -0.034294  -+2++-0
      227   -0.034290   -0.034290  +2-+-0+
      212    0.030409    0.030409  +220200
       76    0.030124    0.030124  2+2-0+0
       17    0.029147    0.029147  22-+00+
       13    0.029102    0.029102  2--+++0
      113   -0.027944    0.027944  +-220+0
     1051   -0.027264   -0.027264  2+++0--
      387   -0.026545    0.026545  2+20+-0
      424   -0.025673   -0.025673  +-2++-0
      561    0.025492    0.025492  2+++--0
       51   -0.025482    0.025482  22+-00+
      143   -0.025229   -0.025229  220+200
      184   -0.024522   -0.024522  -+2+-+0
      773    0.024273   -0.024273  +2-++0-
       29   -0.024192   -0.024192  2--+0++
      122    0.023765    0.023765  +2-200+
      702    0.023422    0.023422  22+0+0-
      159    0.023338   -0.023338  -2++-0+
      179   -0.023007   -0.023007  202+200
      147    0.021725   -0.021725  220+-+0
      353   -0.021027   -0.021027  220++-0
      183   -0.020503    0.020503  202+-+0
       11    0.020143   -0.020143  2-20++0

 State #    2  Energy =     -55.812996557

      Det      Coef        Coefp    Occupancy (Ignoring core)
      ---      ----        ----    --------- --------- -----
       71   -0.938346    0.938346  2+22000
       74    0.106348   -0.106348  2022+00
      246    0.096218    0.096218  2++2-00
       77    0.095245   -0.095245  2+-20+0
      456   -0.085597   -0.085597  2++20-0
       78    0.080541   -0.080541  20220+0
       73   -0.080540    0.080540  2+-2+00
       76    0.078306    0.078306  2+2-0+0
       88    0.069059   -0.069059  202200+
      736    0.067493   -0.067493  2+2+00-
      822    0.065568   -0.065568  2+02002
       86   -0.064239   -0.064239  2+2-00+
      386   -0.064016    0.064016  2+2+0-0
      813    0.045464   -0.045464  20+20+-
       36    0.043998    0.043998  22+2000
      106    0.038483    0.038483  +222000
      320    0.038228    0.038228  0+22200
      323   -0.037588    0.037588  +022-+0
       99   -0.035758    0.035758  20-20++
      810   -0.034965   -0.034965  -++2+0-
       72   -0.034900   -0.034900  2+2-+00
      113    0.034001   -0.034001  +-220+0
      183   -0.033077    0.033077  202+-+0
      180   -0.032748    0.032748  -+2+200
      332   -0.032554    0.032554  ++-2-0+
      317    0.032392   -0.032392  ++2-200
       81    0.032006    0.032006  202-++0
      177    0.031885   -0.031885  2+20200
      111    0.031772   -0.031772  +22-0+0
       83    0.029869   -0.029869  20-2++0
       38   -0.029289    0.029289  2202+00
      252   -0.025349   -0.025349  2+02-+0
      248    0.025002   -0.025002  2+02200
      807   -0.024720    0.024720  2++-+0-
      526   -0.024470   -0.024470  ++220-0
      192   -0.024383    0.024383  2+-+-0+
      529    0.024114    0.024114  +022+-0
      878    0.023478    0.023478  ++-2+0-
      264    0.022660   -0.022660  -++2-0+
      176    0.022010   -0.022010  2+2+-00
       89   -0.021311   -0.021311  -+2200+
      393   -0.021305   -0.021305  202+020
        6    0.021177   -0.021177  22200+0
      534    0.020657    0.020657  0+22020
      391    0.020317   -0.020317  2+20020
       51    0.020106   -0.020106  22+-00+

 State #    3  Energy =     -55.697608291

      Det      Coef        Coefp    Occupancy (Ignoring core)
      ---      ----        ----    --------- --------- -----
       36   -0.940397   -0.940397  22+2000
      456   -0.101444   -0.101444  2++20-0
       43    0.087132    0.087132  2-+20+0
       38    0.084181   -0.084181  2202+00
       42   -0.080485    0.080485  22020+0
      246   -0.080299   -0.080299  2++2-00
       53    0.077347    0.077347  2-+200+
      463    0.075331   -0.075331  20+2020
      806   -0.074499   -0.074499  2++200-
       51   -0.070963    0.070963  22+-00+
      701    0.064278    0.064278  22++00-
       39    0.049661    0.049661  2-+2+00
      351   -0.048031   -0.048031  22++0-0
      472   -0.046490   -0.046490  2+020-+
       71   -0.046074    0.046074  2+22000
      121   -0.040868    0.040868  +22-00+
      285    0.039225   -0.039225  02+2200
       37   -0.038600    0.038600  22+-+00
      112   -0.037709   -0.037709  +2-20+0
      460   -0.037149   -0.037149  -++2+-0
      106    0.036270    0.036270  +222000
       64    0.035908   -0.035908  2-020++
      288   -0.035146   -0.035146  +-+2-+0
      297    0.034324   -0.034324  +202-0+
       41    0.034095   -0.034095  22+-0+0
      282    0.033538    0.033538  +2+-200
      145   -0.032560   -0.032560  -2++200
      457   -0.032502    0.032502  2++-+-0
      142    0.031906    0.031906  22+0200
      148   -0.030695   -0.030695  2-++-+0
       73    0.030638   -0.030638  2+-2+00
       52    0.029547   -0.029547  220200+
      249    0.026971   -0.026971  20+2200
      254    0.026622   -0.026622  -++2-+0
       16   -0.025647    0.025647  222000+
      494    0.025278   -0.025278  +-+2+-0
       46    0.024896   -0.024896  2-+-++0
      157    0.024870   -0.024870  220+-0+
      561    0.023021    0.023021  2+++--0
       44    0.022174   -0.022174  -2+20+0
        3    0.022149    0.022149  22-++00
       48   -0.021948    0.021948  2-02++0
      358   -0.021423    0.021423  2-++020
      843   -0.021074   -0.021074  +202+0-
      461    0.021012   -0.021012  2++-020
      123    0.020879   -0.020879  +-2200+
      771    0.020849    0.020849  +22+00-
      716    0.020791    0.020791  22+0002
       19    0.020019    0.020019  -22+00+

 ---------------------------------------
      - DIABATIC STATES IN CMO -        
 ---------------------------------------

 State #    1  Energy =     -55.932322555

      Det      Coef        Coefp    Occupancy (Ignoring core)
      ---      ----        ----    --------- --------- -----
        1    0.952457   -0.952457  222+000
       36    0.152389    0.152389  22+2000
       71    0.148951   -0.148951  2+22000
      393   -0.071646   -0.071646  202+020
      717   -0.059987   -0.059987  220+002
      179   -0.045545   -0.045545  202+200
       17   -0.037392   -0.037392  22-+00+
        8   -0.036123    0.036123  2-2+0+0
      106   -0.035263   -0.035263  +222000
      215   -0.031701   -0.031701  022+200
        2    0.030854   -0.030854  2220+00
       76    0.029610    0.029610  2+2-0+0
      143   -0.029459   -0.029459  220+200
      180    0.029014   -0.029014  -+2+200
      183    0.028238   -0.028238  202+-+0
      394   -0.026499    0.026499  -+2+020
      428    0.026358    0.026358  +-2+020
      113   -0.025855    0.025855  +-220+0
      402   -0.025832    0.025832  2+-+0-+
      214   -0.025471   -0.025471  +-2+200
      392    0.025424    0.025424  2+-+020
      708   -0.025166    0.025166  2-++0+-
      177   -0.025122    0.025122  2+20200
      389   -0.024940   -0.024940  202++-0
      358   -0.024071    0.024071  2-++020
      212    0.023045    0.023045  +220200
      178   -0.022952   -0.022952  2+-+200
      429   -0.022771   -0.022771  022+020
      705    0.022643    0.022643  -2+++0-
      357   -0.022334   -0.022334  220+020
      716   -0.022131   -0.022131  22+0002
      787   -0.021952    0.021952  +2-+002
       51    0.021711   -0.021711  22+-00+
      227    0.021331    0.021331  +2-+-0+
      719    0.021073    0.021073  -2++002
       74   -0.020879    0.020879  2022+00
      122   -0.020577   -0.020577  +2-200+
       13    0.020183    0.020183  2--+++0

 State #    2  Energy =     -55.812996557

      Det      Coef        Coefp    Occupancy (Ignoring core)
      ---      ----        ----    --------- --------- -----
       71   -0.843431    0.843431  2+22000
       36   -0.456695   -0.456695  22+2000
        1    0.205525   -0.205525  222+000
      822    0.052773   -0.052773  2+02002
      248    0.040851   -0.040851  2+02200
      249    0.039594   -0.039594  20+2200
      253   -0.031991   -0.031991  20+2-+0
      112    0.030903    0.030903  +2-20+0
      111    0.028136   -0.028136  +22-0+0
      813   -0.027886    0.027886  20+20+-
      320    0.026781    0.026781  0+22200
      109    0.026341   -0.026341  +-22+00
      393   -0.026179   -0.026179  202+020
      177    0.025503   -0.025503  2+20200
       74    0.025029   -0.025029  2022+00
       83    0.024516   -0.024516  20-2++0
        6    0.024133   -0.024133  22200+0
      250   -0.023510   -0.023510  -++2200
      534    0.023105    0.023105  0+22020
      247   -0.022926    0.022926  2++-200
       81    0.022071    0.022071  202-++0
      319    0.021915    0.021915  +022200
      113    0.021414   -0.021414  +-220+0
      751    0.021259   -0.021259  2+20002
      533   -0.021066   -0.021066  +022020
      391    0.020512   -0.020512  2+20020

 State #    3  Energy =     -55.697608291

      Det      Coef        Coefp    Occupancy (Ignoring core)
      ---      ----        ----    --------- --------- -----
       36   -0.848130   -0.848130  22+2000
       71    0.481402   -0.481402  2+22000
      463    0.080083   -0.080083  20+2020
        1    0.061112   -0.061112  222+000
      121    0.037426   -0.037426  +22-00+
      113    0.036822   -0.036822  +-220+0
      462   -0.036356    0.036356  2+02020
      108   -0.035852   -0.035852  +2-2+00
      142    0.031272    0.031272  22+0200
      107   -0.030158    0.030158  +22-+00
      285    0.029909   -0.029909  02+2200
      464    0.028815    0.028815  -++2020
      249    0.028494   -0.028494  20+2200
      472    0.027102    0.027102  2+020-+
      459    0.025488   -0.025488  20+2+-0
        3    0.024855    0.024855  22-++00
       72    0.023967    0.023967  2+2-+00
      716    0.023899    0.023899  22+0002
       78   -0.023766    0.023766  20220+0
      498   -0.023658    0.023658  +-+2020
       51   -0.023189    0.023189  22+-00+
        4   -0.023148    0.023148  2-2++00
       52   -0.022996    0.022996  220200+
      822   -0.022916    0.022916  2+02002
      284    0.022735   -0.022735  +-+2200
      771   -0.022253   -0.022253  +22+00-
       74    0.022039   -0.022039  2022+00
      177   -0.021553    0.021553  2+20200
      145   -0.021382   -0.021382  -2++200
      499    0.020979   -0.020979  02+2020
      460   -0.020950   -0.020950  -++2+-0
      561    0.020268    0.020268  2+++--0

 ---------------------------------------
    -DIABATIC STATES IN PROTOTYPES-     
 ---------------------------------------

     STATE:    1
 Group Ref#    Coefficients
     1    1    0.955367
     2    2    0.000228
     3    3   -0.003228

WEIGHT OF LISTED PROTOTYPES:   91.27%

     STATE:    2
 Group Ref#    Coefficients
     1    1    0.000228
     2    2    0.955919
     3    3   -0.000725

WEIGHT OF LISTED PROTOTYPES:   91.38%

     STATE:    3
 Group Ref#    Coefficients
     1    1   -0.003234
     2    2   -0.000726
     3    3    0.953648

WEIGHT OF LISTED PROTOTYPES:   90.95%

     DIRECT MAX. DIABATIZATION FINISHED    
 CPU     0: STEP CPU TIME=     0.25 TOTAL CPU TIME=         14.3 (      0.2 MIN)
 TOTAL WALL CLOCK TIME=         14.3 SECONDS, CPU UTILIZATION IS    99.93%

DIABATS FOR SPIN-ORBIT CALCULATION ARE READY

TRANSITION DIPOLES BETWEEN ADIABATS (in A.U.):

STATE PAIR      X         Y         Z
    1    1  0.197104  0.272784  0.720162
    2    1 -0.056223  0.016903 -0.049954
    2    2  0.146884  0.081719  0.273214
    3    1 -0.054018 -0.113708  0.077468
    3    2  0.097311 -0.073582 -0.000259
    3    3  0.353607  0.515629  0.237950


TRANSITION DIPOLES BETWEEN DIABATS (in A.U.):

STATE PAIR      X         Y         Z
    1    1  0.191460  0.240024  0.737495
    2    1 -0.012993  0.047488  0.000688
    2    2  0.106234  0.262121  0.251797
    3    1  0.048839  0.042871  0.005530
    3    2  0.042352  0.239062 -0.021796
    3    3  0.399902  0.367988  0.242034

TRANSITION DIPOLES BETWEEN DIRECT MAX. DIABATS (in A.U.):

STATE PAIR      X         Y         Z
    1    1  0.191460  0.240024  0.737495
    2    1 -0.012993  0.047488  0.000688
    2    2  0.106234  0.262121  0.251797
    3    1  0.048840  0.042872  0.005529
    3    2  0.042353  0.239062 -0.021796
    3    3  0.399901  0.367987  0.242034
 No $TRANST Group Found.
 Quit without doing spin-orbit coupling
 ..... DONE WITH MP2 ENERGY .....
 CPU     0: STEP CPU TIME=     0.00 TOTAL CPU TIME=         14.3 (      0.2 MIN)
 TOTAL WALL CLOCK TIME=         14.3 SECONDS, CPU UTILIZATION IS    99.93%
            100000000  WORDS OF DYNAMIC MEMORY USED
 EXECUTION OF GAMESS TERMINATED NORMALLY Wed Nov 16 20:03:16 2022
 DDI: 715512 bytes (0.7 MB / 0 MWords) used by master data server.

 ----------------------------------------
 CPU timing information for all processes
 ========================================
 0: 14.17 + 0.272 = 14.289
 ----------------------------------------
Note: The following floating-point exceptions are signalling: IEEE_DENORMAL
 ddikick.x: exited gracefully.
unset echo
----- accounting info -----
Files used on the master node io002 were:
-rw-r--r-- 1 bsonghao nooijen   20732 Nov 16 20:03 /scratch/bsonghao/nh3_diabatization_2d_at_mode_7_8_dist0.5_0.4.F05
-rw-r--r-- 1 bsonghao nooijen  363520 Nov 16 20:03 /scratch/bsonghao/nh3_diabatization_2d_at_mode_7_8_dist0.5_0.4.F09
-rw-r--r-- 1 bsonghao nooijen 1995920 Nov 16 20:03 /scratch/bsonghao/nh3_diabatization_2d_at_mode_7_8_dist0.5_0.4.F10
-rw-r--r-- 1 bsonghao nooijen  131264 Nov 16 20:03 /scratch/bsonghao/nh3_diabatization_2d_at_mode_7_8_dist0.5_0.4.F13
-rw-r--r-- 1 bsonghao nooijen  180312 Nov 16 20:03 /scratch/bsonghao/nh3_diabatization_2d_at_mode_7_8_dist0.5_0.4.F15
-rw-r--r-- 1 bsonghao nooijen       0 Nov 16 20:03 /scratch/bsonghao/nh3_diabatization_2d_at_mode_7_8_dist0.5_0.4.F16
-rw-r--r-- 1 bsonghao nooijen    9808 Nov 16 20:03 /scratch/bsonghao/nh3_diabatization_2d_at_mode_7_8_dist0.5_0.4.F70
-rw-r--r-- 1 bsonghao nooijen    9808 Nov 16 20:03 /scratch/bsonghao/nh3_diabatization_2d_at_mode_7_8_dist0.5_0.4.F71
-rw-r--r-- 1 bsonghao nooijen   19608 Nov 16 20:03 /scratch/bsonghao/nh3_diabatization_2d_at_mode_7_8_dist0.5_0.4.F72
-rw-r--r-- 1 bsonghao nooijen   19608 Nov 16 20:03 /scratch/bsonghao/nh3_diabatization_2d_at_mode_7_8_dist0.5_0.4.F73
-rw-r--r-- 1 bsonghao nooijen 1920824 Nov 16 20:03 /scratch/bsonghao/nh3_diabatization_2d_at_mode_7_8_dist0.5_0.4.F74
-rw-r--r-- 1 bsonghao nooijen       0 Nov 16 20:03 /scratch/bsonghao/nh3_diabatization_2d_at_mode_7_8_dist0.5_0.4.F75
-rw-r--r-- 1 bsonghao nooijen   58848 Nov 16 20:03 /scratch/bsonghao/nh3_diabatization_2d_at_mode_7_8_dist0.5_0.4.F76
-rw-r--r-- 1 bsonghao nooijen       0 Nov 16 20:03 /scratch/bsonghao/nh3_diabatization_2d_at_mode_7_8_dist0.5_0.4.F77
-rw-r--r-- 1 bsonghao nooijen    1864 Nov 16 20:03 /scratch/bsonghao/nh3_diabatization_2d_at_mode_7_8_dist0.5_0.4.F78
-rw-r--r-- 1 bsonghao nooijen   39208 Nov 16 20:03 /scratch/bsonghao/nh3_diabatization_2d_at_mode_7_8_dist0.5_0.4.F79
-rw-r--r-- 1 bsonghao nooijen     104 Nov 16 20:03 /scratch/bsonghao/nh3_diabatization_2d_at_mode_7_8_dist0.5_0.4.F80
-rw-r--r-- 1 bsonghao nooijen   13472 Nov 16 20:03 /scratch/bsonghao/nh3_diabatization_2d_at_mode_7_8_dist0.5_0.4.F81
-rw-r--r-- 1 bsonghao nooijen      16 Nov 16 20:03 /scratch/bsonghao/nh3_diabatization_2d_at_mode_7_8_dist0.5_0.4.F82
-rw-r--r-- 1 bsonghao nooijen   19216 Nov 16 20:03 /scratch/bsonghao/nh3_diabatization_2d_at_mode_7_8_dist0.5_0.4.F83
-rw-r--r-- 1 bsonghao nooijen   29712 Nov 16 20:03 /scratch/bsonghao/nh3_diabatization_2d_at_mode_7_8_dist0.5_0.4.F84
-rw-r--r-- 1 bsonghao nooijen  401576 Nov 16 20:03 /scratch/bsonghao/nh3_diabatization_2d_at_mode_7_8_dist0.5_0.4.F85
-rw-r--r-- 1 bsonghao nooijen  903672 Nov 16 20:03 /scratch/bsonghao/nh3_diabatization_2d_at_mode_7_8_dist0.5_0.4.F86
-rw-r--r-- 1 bsonghao nooijen     656 Nov 16 20:03 /scratch/bsonghao/nh3_diabatization_2d_at_mode_7_8_dist0.5_0.4.F87
-rw-r--r-- 1 bsonghao nooijen   36016 Nov 16 20:03 /scratch/bsonghao/nh3_diabatization_2d_at_mode_7_8_dist0.5_0.4.F88
-rw-r--r-- 1 bsonghao nooijen     240 Nov 16 20:03 /scratch/bsonghao/nh3_diabatization_2d_at_mode_7_8_dist0.5_0.4.F89
-rw-r--r-- 1 bsonghao nooijen       0 Nov 16 20:03 /scratch/bsonghao/nh3_diabatization_2d_at_mode_7_8_dist0.5_0.4.F90
-rw-r--r-- 1 bsonghao nooijen   13760 Nov 16 20:03 /scratch/bsonghao/nh3_diabatization_2d_at_mode_7_8_dist0.5_0.4.F91
-rw-r--r-- 1 bsonghao nooijen   22776 Nov 16 20:03 /scratch/bsonghao/nh3_diabatization_2d_at_mode_7_8_dist0.5_0.4.F92
-rw-r--r-- 1 bsonghao nooijen   23168 Nov 16 20:03 /scratch/bsonghao/nh3_diabatization_2d_at_mode_7_8_dist0.5_0.4.F93
-rw-r--r-- 1 bsonghao nooijen   22776 Nov 16 20:03 /scratch/bsonghao/nh3_diabatization_2d_at_mode_7_8_dist0.5_0.4.F94
-rw-r--r-- 1 bsonghao nooijen   13760 Nov 16 20:03 /scratch/bsonghao/nh3_diabatization_2d_at_mode_7_8_dist0.5_0.4.F95
-rw-r--r-- 1 bsonghao nooijen   29440 Nov 16 20:03 /scratch/bsonghao/nh3_diabatization_2d_at_mode_7_8_dist0.5_0.4.F96
-rw-r--r-- 1 bsonghao nooijen    1184 Nov 16 20:03 /scratch/bsonghao/nh3_diabatization_2d_at_mode_7_8_dist0.5_0.4.F97
-rw-r--r-- 1 bsonghao nooijen    9808 Nov 16 20:03 /scratch/bsonghao/nh3_diabatization_2d_at_mode_7_8_dist0.5_0.4.F98
-rw-r--r-- 1 bsonghao nooijen   30264 Nov 16 20:03 /scratch/bsonghao/nh3_diabatization_2d_at_mode_7_8_dist0.5_0.4.F99
ls: No match.
ls: No match.
ls: No match.
Wed 16 Nov 2022 08:03:19 PM EST
0.280u 0.049s 0:17.66 1.8%	0+0k 48+224io 0pf+0w
