----- GAMESS execution script 'rungms' -----
This job is running on host io002
under operating system Linux at Wed 16 Nov 2022 06:35:43 PM EST
Available scratch disk space (Kbyte units) at beginning of the job is
Filesystem       1K-blocks       Used   Available Use% Mounted on
/dev/sdc1      15378471580 3278917120 11318349060  23% /scratch
GAMESS temporary binary files will be written to /scratch/bsonghao
GAMESS supplementary output files will be written to /home/bsonghao/.gamess_ascii_files/267638
Copying input file nh3_diabatization_2d_at_mode_7_8_dist-0.6_-0.3.inp to your run's scratch directory...
cp nh3_diabatization_2d_at_mode_7_8_dist-0.6_-0.3.inp /scratch/bsonghao/nh3_diabatization_2d_at_mode_7_8_dist-0.6_-0.3.F05
unset echo
/home/bjb2chen/gamess/ddikick.x /home/bjb2chen/gamess/gamess.00.x nh3_diabatization_2d_at_mode_7_8_dist-0.6_-0.3 -ddi 1 1 io002 -scr /scratch/bsonghao

 Distributed Data Interface kickoff program.
 Initiating 1 compute processes on 1 nodes to run the following command:
 /home/bjb2chen/gamess/gamess.00.x nh3_diabatization_2d_at_mode_7_8_dist-0.6_-0.3 

          ******************************************************
          *         GAMESS VERSION = 02 AUG 2018 (R2)         *
          *             FROM IOWA STATE UNIVERSITY             *
          * M.W.SCHMIDT, K.K.BALDRIDGE, J.A.BOATZ, S.T.ELBERT, *
          *   M.S.GORDON, J.H.JENSEN, S.KOSEKI, N.MATSUNAGA,   *
          *          K.A.NGUYEN, S.J.SU, T.L.WINDUS,           *
          *       TOGETHER WITH M.DUPUIS, J.A.MONTGOMERY       *
          *         J.COMPUT.CHEM.  14, 1347-1363(1993)        *
          **************** 64 BIT LINUX VERSION ****************

  SINCE 1993, STUDENTS AND POSTDOCS WORKING AT IOWA STATE UNIVERSITY
  AND ALSO IN THEIR VARIOUS JOBS AFTER LEAVING ISU HAVE MADE IMPORTANT
  CONTRIBUTIONS TO THE CODE:
     IVANA ADAMOVIC, CHRISTINE AIKENS, YURI ALEXEEV, POOJA ARORA,
     ANDREY ASADCHEV, ROB BELL, PRADIPTA BANDYOPADHYAY, JONATHAN BENTZ,
     BRETT BODE, KURT BRORSEN, CALEB CARLIN, GALINA CHABAN, WEI CHEN,
     CHEOL HO CHOI, PAUL DAY, ALBERT DEFUSCO, NUWAN DESILVA, TIM DUDLEY,
     DMITRI FEDOROV, ALEX FINDLATER, GRAHAM FLETCHER, MARK FREITAG,
     KURT GLAESEMANN, ANASTASIA GUININA,
     DAN KEMP, GRANT MERRILL, NORIYUKI MINEZAWA, JONATHAN MULLIN,
     TAKESHI NAGATA, SEAN NEDD, HEATHER NETZLOFF, BOSILJKA NJEGIC, RYAN OLSON,
     MIKE PAK, BUU PHAM,
     SPENCER PRUITT, LUKE ROSKOP, JIM SHOEMAKER, LYUDMILA SLIPCHENKO,
     TONY SMITH, SAROM SOK LEANG, JIE SONG, TETSUYA TAKETSUGU, SIMON WEBB,
     PENG XU, SOOHAENG YOO, FEDERICO ZAHARIEV

  ADDITIONAL CODE HAS BEEN PROVIDED BY COLLABORATORS IN OTHER GROUPS:
     IOWA STATE UNIVERSITY:
          JOE IVANIC, AARON WEST, LAIMUTIS BYTAUTAS, KLAUS RUEDENBERG
     UNIVERSITY OF TOKYO: KIMIHIKO HIRAO, TAKAHITO NAKAJIMA,
          TAKAO TSUNEDA, MUNEAKI KAMIYA, SUSUMU YANAGISAWA,
          KIYOSHI YAGI, MAHITO CHIBA, SEIKEN TOKURA, NAOAKI KAWAKAMI
     UNIVERSITY OF AARHUS: FRANK JENSEN
     UNIVERSITY OF IOWA: VISVALDAS KAIRYS, HUI LI
     NATIONAL INST. OF STANDARDS AND TECHNOLOGY: WALT STEVENS, DAVID GARMER
     UNIVERSITY OF PISA: BENEDETTA MENNUCCI, JACOPO TOMASI
     UNIVERSITY OF MEMPHIS: HENRY KURTZ, PRAKASHAN KORAMBATH
     UNIVERSITY OF ALBERTA: TOBY ZENG, MARIUSZ KLOBUKOWSKI
     UNIVERSITY OF NEW ENGLAND: MARK SPACKMAN
     MIE UNIVERSITY: HIROAKI UMEDA
     NAT. INST. OF ADVANCED INDUSTRIAL SCIENCE AND TECHNOLOGY: KAZUO KITAURA
     MICHIGAN STATE UNIVERSITY:
          KAROL KOWALSKI, MARTA WLOCH, JEFFREY GOUR, JESSE LUTZ,
          WEI LI, JUN SHEN, J. EMILIANO DEUSTUA, PIOTR PIECUCH
     UNIVERSITY OF MINNESOTA:
          YINAN SHU
     UNIVERSITY OF SILESIA: MONIKA MUSIAL, STANISLAW KUCHARSKI
     FACULTES UNIVERSITAIRES NOTRE-DAME DE LA PAIX:
          OLIVIER QUINET, BENOIT CHAMPAGNE
     UNIVERSITY OF CALIFORNIA - SANTA BARBARA: BERNARD KIRTMAN
     INSTITUTE FOR MOLECULAR SCIENCE:
          KAZUYA ISHIMURA, MICHIO KATOUDA, AND SHIGERU NAGASE
     UNIVERSITY OF NOTRE DAME: ANNA POMOGAEVA, DAN CHIPMAN
     KYUSHU UNIVERSITY:
          HARUYUKI NAKANO,
          FENG LONG GU, JACEK KORCHOWIEC, MARCIN MAKOWSKI, AND YURIKO AOKI,
          HIROTOSHI MORI AND EISAKU MIYOSHI
     PENNSYLVANIA STATE UNIVERSITY:
          TZVETELIN IORDANOV, CHET SWALINA, JONATHAN SKONE,
          SHARON HAMMES-SCHIFFER
     WASEDA UNIVERSITY:
          MASATO KOBAYASHI, TOMOKO AKAMA, TSUGUKI TOUMA,
          TAKESHI YOSHIKAWA, YASUHIRO IKABATA, JUNJI SEINO,
          YUYA NAKAJIMA, HIROMI NAKAI
     NANJING UNIVERSITY: SHUHUA LI
     UNIVERSITY OF NEBRASKA:
          PEIFENG SU, DEJUN SI, NANDUN THELLAMUREGE, YALI WANG, HUI LI
     UNIVERSITY OF ZURICH: ROBERTO PEVERATI, KIM BALDRIDGE
     N. COPERNICUS UNIVERSITY AND JACKSON STATE UNIVERSITY:
          MARIA BARYSZ
     UNIVERSITY OF COPENHAGEN: Jimmy Kromann, CASPER STEINMANN
     TOKYO INSTITUTE OF TECHNOLOGY: HIROYA NAKATA
     NAGOYA UNIVERSITY: YOSHIO NISHIMOTO, STEPHAN IRLE
     MOSCOW STATE UNIVERSITY: VLADIMIR MIRONOV

 EXECUTION OF GAMESS BEGUN Wed Nov 16 18:35:43 2022

            ECHO OF THE FIRST FEW INPUT CARDS -
 INPUT CARD> $system kdiag=3 mwords=100 memddi=1000 parall=.t. $end                         
 INPUT CARD> $contrl runtyp=energy ispher=1 $end                                            
 INPUT CARD> $contrl icut=9 itol=20 inttyp=rysquad qmttol=1.0d-05 nosym=1 $end              
 INPUT CARD> $scf    npunch=2 conv=1.0d-06 dirscf=.t.      $end                             
 INPUT CARD> $contrl scftyp=mcscf  mult=2 maxit=200 icharg=1 mplevl=2 $end                  
 INPUT CARD> $guess  guess=moread norb=29 purify=.t. $end                                   
 INPUT CARD> $basis  gbasis=ccd $end                                                        
 INPUT CARD> $mcscf  cistep=gmcci fullnr=.t. finci=mos                                      
 INPUT CARD>         acurcy=1.d-6 maxit=100 $end                                            
 INPUT CARD> $trans  dirtrf=.t. $end                                                        
 INPUT CARD> $mrmp   mrpt=gmcpt rdvecs=.f. $end                                             
 INPUT CARD> $gmcpt  nmofzc=0 nmodoc=1 nmoact=7 nelact=7 stsym(1)=A                         
 INPUT CARD>         reftyp=ormas nspace=1 mstart(1)=2 mine(1)=7 maxe(1)=7                  
 INPUT CARD>         kstate(1)=1,1,1                                                        
 INPUT CARD>         wstate(1)=1,1,1                                                        
 INPUT CARD>         iwgt=0 thrwgt=-1.0 krot=.f. kszdoe=.f. knospn=.f.                      
 INPUT CARD>         thrde=-1.0 edshft=0.02 $end                                            
 INPUT CARD> $data                                                                          
 INPUT CARD> NH3+ 3 states calculation at NH3 structure.                                    
 INPUT CARD> c1                                                                             
 INPUT CARD>N 7.0 0.018686754000000003 0.037373418000000005 -0.1693805222                   
 INPUT CARD>H 1.0 -0.847342507 0.6506007868 0.15889111109999998                             
 INPUT CARD>H 1.0 -0.388790599 -0.7320626098 0.43321996710000005                            
 INPUT CARD>H 1.0 0.976475666 -0.43785447000000005 0.1772671251                             
 INPUT CARD>$end                                                                            
 INPUT CARD>--- OPTIMIZED RHF      MO-S --- GENERATED AT Mon Nov 14 16:47:08 2022           
 INPUT CARD>E=      -56.3825050291, E(NUC)=   11.8429239490                                 
 INPUT CARD> $VEC                                                                           
 INPUT CARD> 1  1-1.00134066E+00-2.25158504E-03 3.44925845E-03 0.00000000E+00 0.00000000E+00
 INPUT CARD> 1  2-2.13170927E-03 0.00000000E+00 0.00000000E+00 6.57129898E-04-6.87950443E-05
 INPUT CARD> 1  3-6.87950443E-05 1.37590089E-04 0.00000000E+00 0.00000000E+00 0.00000000E+00
 INPUT CARD> 1  4 3.25502815E-04-4.84772356E-04 3.62525460E-04-6.27912517E-04-3.45956485E-04
 INPUT CARD> 1  5 3.25502815E-04-4.84772356E-04 3.62525460E-04 6.27912517E-04-3.45956485E-04
 INPUT CARD> 1  6 3.25502815E-04-4.84772356E-04-7.25050921E-04 0.00000000E+00-3.45956485E-04
 INPUT CARD> 2  1 1.31286642E-02-4.05911371E-01-2.82090992E-01 0.00000000E+00 0.00000000E+00
 INPUT CARD> 2  2-7.71489043E-02 0.00000000E+00 0.00000000E+00 9.73717494E-03 6.62450916E-04
 INPUT CARD> 2  3 6.62450916E-04-1.32490183E-03 0.00000000E+00 0.00000000E+00 0.00000000E+00
 INPUT CARD> 2  4-1.96090317E-01-1.96656153E-02-1.74855877E-02 3.02859263E-02 8.68214399E-03
 INPUT CARD> 2  5-1.96090317E-01-1.96656153E-02-1.74855877E-02-3.02859263E-02 8.68214399E-03
 INPUT CARD> 2  6-1.96090317E-01-1.96656153E-02 3.49711754E-02 0.00000000E+00 8.68214399E-03
 INPUT CARD> 3  1 0.00000000E+00 0.00000000E+00 0.00000000E+00 4.48608762E-01 0.00000000E+00
 INPUT CARD> 3  2 0.00000000E+00 2.18692520E-01 0.00000000E+00 0.00000000E+00 1.30198027E-02
 INPUT CARD> 3  3-1.30198027E-02 0.00000000E+00 0.00000000E+00 2.71832968E-02 0.00000000E+00
 INPUT CARD> 3  4-1.85332726E-01-7.03958951E-02 8.47929477E-03 1.95242443E-02 8.32835058E-03
 INPUT CARD> 3  5-1.85332726E-01-7.03958951E-02 8.47929477E-03-1.95242443E-02 8.32835058E-03
 INPUT CARD> 3  6 3.70665453E-01 1.40791790E-01-2.53376884E-02 0.00000000E+00-1.66567012E-02
 INPUT CARD> 4  1 0.00000000E+00 0.00000000E+00 0.00000000E+00 0.00000000E+00 4.48608762E-01
 INPUT CARD> 4  2 0.00000000E+00 0.00000000E+00 2.18692520E-01 0.00000000E+00 0.00000000E+00
 INPUT CARD> 4  3 0.00000000E+00 0.00000000E+00-1.50339731E-02 0.00000000E+00 2.71832968E-02
 INPUT CARD> 4  4 3.21005698E-01 1.21929267E-01 1.95242443E-02-1.40653607E-02-1.44251263E-02
  100000000 WORDS OF MEMORY AVAILABLE

     BASIS OPTIONS
     -------------
     GBASIS=CCD          IGAUSS=       0      POLAR=NONE    
     NDFUNC=       0     NFFUNC=       0     DIFFSP=       F
     NPFUNC=       0      DIFFS=       F     BASNAM=        


     RUN TITLE
     ---------
  NH3+ 3 states calculation at NH3 structure.                                    

 THE POINT GROUP OF THE MOLECULE IS C1      
 THE ORDER OF THE PRINCIPAL AXIS IS     0

 ATOM      ATOMIC                      COORDINATES (BOHR)
           CHARGE         X                   Y                   Z
 N           7.0     0.0353128447        0.0706255192       -0.3200827746
 H           1.0    -1.6012451560        1.2294572144        0.3002606619
 H           1.0    -0.7347076987       -1.3833977384        0.8186670302
 H           1.0     1.8452714424       -0.8274249708        0.3349862931

          INTERNUCLEAR DISTANCES (ANGS.)
          ------------------------------

                1 N          2 H          3 H          4 H     

   1 N       0.0000000    1.1107730 *  1.0588659 *  1.1239954 *
   2 H       1.1107730 *  0.0000000    1.4823239 *  2.1240022 *
   3 H       1.0588659 *  1.4823239 *  0.0000000    1.4198670 *
   4 H       1.1239954 *  2.1240022 *  1.4198670 *  0.0000000  

  * ... LESS THAN  3.000


     ATOMIC BASIS SET
     ----------------
 THE CONTRACTED PRIMITIVE FUNCTIONS HAVE BEEN UNNORMALIZED
 THE CONTRACTED BASIS FUNCTIONS ARE NOW NORMALIZED TO UNITY

  SHELL TYPE  PRIMITIVE        EXPONENT          CONTRACTION COEFFICIENT(S)

 N         

      1   S       1          9046.0000000    0.000699617413
      1   S       2          1357.0000000    0.005386054630
      1   S       3           309.3000000    0.027391021189
      1   S       4            87.7300000    0.103150591982
      1   S       5            28.5600000    0.278570663317
      1   S       6            10.2100000    0.448294849454
      1   S       7             3.8380000    0.278085928395
      1   S       8             0.7466000    0.015431561233

      2   S       9          9046.0000000   -0.000304990096
      2   S      10          1357.0000000   -0.002408026379
      2   S      11           309.3000000   -0.011944448725
      2   S      12            87.7300000   -0.048925992909
      2   S      13            28.5600000   -0.134472724725
      2   S      14            10.2100000   -0.315112577700
      2   S      15             3.8380000   -0.242857832550
      2   S      16             0.7466000    1.094382206854

      3   S      17             0.2248000    1.000000000000

      4   P      18            13.5500000    0.058905676772
      4   P      19             2.9170000    0.320461106714
      4   P      20             0.7973000    0.753042061792

      5   P      21             0.2185000    1.000000000000

      6   D      22             0.8170000    1.000000000000

 H         

      7   S      23            13.0100000    0.033498726390
      7   S      24             1.9620000    0.234800801174
      7   S      25             0.4446000    0.813682957883

      8   S      26             0.1220000    1.000000000000

      9   P      27             0.7270000    1.000000000000

 H         

     10   S      28            13.0100000    0.033498726390
     10   S      29             1.9620000    0.234800801174
     10   S      30             0.4446000    0.813682957883

     11   S      31             0.1220000    1.000000000000

     12   P      32             0.7270000    1.000000000000

 H         

     13   S      33            13.0100000    0.033498726390
     13   S      34             1.9620000    0.234800801174
     13   S      35             0.4446000    0.813682957883

     14   S      36             0.1220000    1.000000000000

     15   P      37             0.7270000    1.000000000000

 TOTAL NUMBER OF BASIS SET SHELLS             =   15
 NUMBER OF CARTESIAN GAUSSIAN BASIS FUNCTIONS =   30
 NOTE: THIS RUN WILL RESTRICT THE MO VARIATION SPACE TO SPHERICAL HARMONICS.
 THE NUMBER OF ORBITALS KEPT IN THE VARIATIONAL SPACE WILL BE PRINTED LATER.
 NUMBER OF ELECTRONS                          =    9
 CHARGE OF MOLECULE                           =    1
 SPIN MULTIPLICITY                            =    2
 NUMBER OF OCCUPIED ORBITALS (ALPHA)          =    5
 NUMBER OF OCCUPIED ORBITALS (BETA )          =    4
 TOTAL NUMBER OF ATOMS                        =    4
 THE NUCLEAR REPULSION ENERGY IS       11.1075704084

     $CONTRL OPTIONS
     ---------------
 SCFTYP=MCSCF        RUNTYP=ENERGY       EXETYP=RUN     
 MPLEVL=       2     CITYP =NONE         CCTYP =NONE         VBTYP =NONE    
 DFTTYP=NONE         TDDFT =NONE    
 MULT  =       2     ICHARG=       1     NZVAR =       0     COORD =UNIQUE  
 PP    =NONE         RELWFN=NONE         LOCAL =NONE         NUMGRD=       F
 ISPHER=       1     NOSYM =       1     MAXIT =     200     UNITS =ANGS    
 PLTORB=       F     MOLPLT=       F     AIMPAC=       F     FRIEND=        
 NPRINT=       7     IREST =       0     GEOM  =INPUT   
 NORMF =       0     NORMP =       0     ITOL  =      20     ICUT  =       9
 INTTYP=RYSQUAD      GRDTYP=BEST         QMTTOL= 1.0E-05

     $SYSTEM OPTIONS
     ---------------
  REPLICATED MEMORY=   100000000 WORDS (ON EVERY NODE).
 DISTRIBUTED MEMDDI=        1000 MILLION WORDS IN AGGREGATE,
 MEMDDI DISTRIBUTED OVER   1 PROCESSORS IS  1000000000 WORDS/PROCESSOR.
 TOTAL MEMORY REQUESTED ON EACH PROCESSOR=  1100000000 WORDS.
 TIMLIM=      525600.00 MINUTES, OR     365.0 DAYS.
 PARALL= T  BALTYP=  DLB     KDIAG=    3  COREFL= F
 MXSEQ2=     300 MXSEQ3=     150  mem10=         0

          ----------------
          PROPERTIES INPUT
          ----------------

     MOMENTS            FIELD           POTENTIAL          DENSITY
 IEMOM =       1   IEFLD =       0   IEPOT =       0   IEDEN =       0
 WHERE =COMASS     WHERE =NUCLEI     WHERE =NUCLEI     WHERE =NUCLEI  
 OUTPUT=BOTH       OUTPUT=BOTH       OUTPUT=BOTH       OUTPUT=BOTH    
 IEMINT=       0   IEFINT=       0                     IEDINT=       0
                                                       MORB  =       0

     -------------------------------
     INTEGRAL TRANSFORMATION OPTIONS
     -------------------------------
     NWORD  =            0
     CUTOFF = 1.0E-09     MPTRAN =       0
     DIRTRF =       T     AOINTS =DUP     

          ----------------------
          MCSCF INPUT PARAMETERS
          ----------------------
 CONVERGER SELECTION: FOCAS = F  SOSCF = F  FULLNR = T  QUD = F  JACOBI = F
 SECULAR EQUATION METHOD CISTEP = GMCCI   
 --- GENERAL INPUT OPTIONS:
 MAXIT =     100  MICIT =       1  ACURCY= 1.000E-06
 DAMP  =   0.000  CANONC=       T  ENGTOL= 1.000E-10
 EKT   =       F  NPUNCH=       2  NWORD =         0
 REGENERATE CI AFTER CONVERGENCE = NONE    
 DIABATIZATION AFTER CONVERGENCE =        F
 --- INPUT FOR FULLNR CONVERGER:
 METHOD=DM2       FORS  =       F  DROPC =       T
 LINSER=       F  FCORE =       F  NORB  =      30

          ----------------------
          INTEGRAL INPUT OPTIONS
          ----------------------
 NOPK  =       1 NORDER=       0 SCHWRZ=       T

 ------------------------------------------
 MULTIREFERENCE PERTURBATION THEORY CONTROL
 ------------------------------------------
 MRPT=GMCPT    READ CONVERGED MCSCF VECTORS= F


     ------------------------------------------
     THE POINT GROUP IS C1 , NAXIS= 1, ORDER= 1
     ------------------------------------------

 -- VARIATIONAL SPACE WILL BE RESTRICTED TO PURE SPHERICAL HARMONICS ONLY --
 AFTER EXCLUDING CONTAMINANT COMBINATIONS FROM THE CARTESIAN GAUSSIAN BASIS
 SET, THE NUMBER OF SPHERICAL HARMONICS KEPT IN THE VARIATION SPACE IS   29

     DIMENSIONS OF THE SYMMETRY SUBSPACES ARE
 A   =   29

 ..... DONE SETTING UP THE RUN .....
 CPU     0: STEP CPU TIME=     0.03 TOTAL CPU TIME=          0.0 (      0.0 MIN)
 TOTAL WALL CLOCK TIME=          0.1 SECONDS, CPU UTILIZATION IS    60.00%

          ********************
          1 ELECTRON INTEGRALS
          ********************
 TIME TO DO   DIPOLE INTEGRALS=      0.01
 ...... END OF ONE-ELECTRON INTEGRALS ......
 CPU     0: STEP CPU TIME=     0.01 TOTAL CPU TIME=          0.0 (      0.0 MIN)
 TOTAL WALL CLOCK TIME=          0.1 SECONDS, CPU UTILIZATION IS    80.00%

          -------------
          GUESS OPTIONS
          -------------
          GUESS =MOREAD            NORB  =      29          NORDER=       0
          MIX   =       F          PRTMO =       F          PUNMO =       F
          TOLZ  = 1.0E-08          TOLE  = 1.0E-05
          SYMDEN=       F          PURIFY=       T

 INITIAL GUESS ORBITALS GENERATED BY MOREAD   ROUTINE.

 STATISTICS FOR GENERATION OF SYMMETRY ORBITAL -Q- MATRIX
 NUMBER OF CARTESIAN ATOMIC ORBITALS=         30
 NUMBER OF SPHERICAL CONTAMINANTS DROPPED=     1
 NUMBER OF LINEARLY DEPENDENT MOS DROPPED=     0
 TOTAL NUMBER OF MOS IN VARIATION SPACE=      29
 ORBITAL PURIFICATION WILL OCCUR

 SYMMETRIES FOR INITIAL GUESS ORBITALS FOLLOW.   BOTH SET(S).
     5 ORBITALS ARE OCCUPIED (    1 CORE ORBITALS).
     1=A        2=A        3=A        4=A        5=A        6=A        7=A   
     8=A        9=A       10=A       11=A       12=A       13=A       14=A   
    15=A       16=A       17=A       18=A       19=A       20=A       21=A   
    22=A       23=A       24=A       25=A       26=A       27=A       28=A   
    29=A   
 ...... END OF INITIAL ORBITAL SELECTION ......
 CPU     0: STEP CPU TIME=     0.00 TOTAL CPU TIME=          0.0 (      0.0 MIN)
 TOTAL WALL CLOCK TIME=          0.1 SECONDS, CPU UTILIZATION IS    66.67%

                    ----------------------
                    AO INTEGRAL TECHNOLOGY
                    ----------------------
     S,P,L SHELL ROTATED AXIS INTEGRALS, REPROGRAMMED BY
        KAZUYA ISHIMURA (IMS) AND JOSE SIERRA (SYNSTAR).
     S,P,D,L SHELL ROTATED AXIS INTEGRALS PROGRAMMED BY
        KAZUYA ISHIMURA (INSTITUTE FOR MOLECULAR SCIENCE).
     S,P,D,F,G SHELL TO TOTAL QUARTET ANGULAR MOMENTUM SUM 5,
        ERIC PROGRAM BY GRAHAM FLETCHER (ELORET AND NASA ADVANCED
        SUPERCOMPUTING DIVISION, AMES RESEARCH CENTER).
     S,P,D,F,G,L SHELL GENERAL RYS QUADRATURE PROGRAMMED BY
        MICHEL DUPUIS (PACIFIC NORTHWEST NATIONAL LABORATORY).

          --------------------
          2 ELECTRON INTEGRALS
          --------------------

 DIRECT SCF METHOD SKIPS INTEGRAL STORAGE ON DISK.
 DIRECT TRANSFORMATION SKIPS AO INTEGRAL STORAGE ON DISK.
  ...... END OF TWO-ELECTRON INTEGRALS .....
 STEP CPU TIME =     0.02 TOTAL CPU TIME =          0.1 (      0.0 MIN)
 TOTAL WALL CLOCK TIME=          0.1 SECONDS, CPU UTILIZATION IS    75.00%
 DDI: Creating Array [0] - 900 x 36 = 32400 words.
 DDI: Creating Array [1] - 21 x 288 = 6048 words.
 DDI: Creating Array [2] - 36 x 36 = 1296 words.
 DDI: Creating Array [3] - 465 x 36 = 16740 words.

          -----------------
          MCSCF CALCULATION
          -----------------

 ----- NUCLEAR ENERGY ----- =        11.1075704084

     -------------------------------------------------
     GMC-PT/GMC-QDPT or general MCSCF input parameters
     -------------------------------------------------
 # of frozen core orbs. =         0 ->         0
 # of doubly occ. orbs. =         1
 # of active      orbs. =         7
 # of virtual     orbs. =        21
 # of active electrons  =         7
 # of states in CI      =         3
 Highest state in CI    =         3
 kstate =  1 1 1
 avecoe =  0.333 0.333 0.333
 State symmetry           = A           
 Assigned symmetry number = 1

 <<<Act. MO sym.: 1111111

 <<<Division of 1-ext.:  0
 <<<Division of 2-ext.:  0

 *** Reference space

 Reference type: ORMAS (= Occupation restricted multiple active space)
 # of orbitals          =  7
 # of minimum electrons =  7
 # of maximum electrons =  7
 State symmetry    =    1 (input)
 2*Sz              =    1 (input)
 Spin multiplicity =    2 (input)
 Dimension of reference space =      1225  (from      3432 walks)

 Dimension of reference space =      1225  (from      1225 walks)

 <<<Ionized spaces for Ref-CI:
      0:         1225 /   -1-0:         1960 /  0-1-0:         2891

 EVALUATING EXCHANGE INTEGRALS FOR DIRECT INTEGRAL TRANSFORMATION
 SCHWARZ INEQUALITY OVERHEAD:       465 INTEGRALS, T=        0.00

     --------------------------------------------
     PARTIAL TWO ELECTRON INTEGRAL TRANSFORMATION
     --------------------------------------------

 NUMBER OF CORE MOLECULAR ORBITALS     =    1
 NUMBER OF OCCUPIED MOLECULAR ORBITALS =    8
 TOTAL NUMBER OF MOLECULAR ORBITALS    =   29
 TOTAL NUMBER OF ATOMIC ORBITALS       =   30
 THRESHOLD FOR KEEPING TRANSFORMED 2E- INTEGRALS = 1.000E-09

 -------------------------------     ------------------------------
 DISTRIBUTED DATA TRANSFORMATION     PROGRAM WRITTEN BY G. FLETCHER
 -------------------------------     ------------------------------

 THE DISTRIBUTED MEMORY REQUIRED FOR THIS STEP IS MEMDDI=         1 MWORDS
 CREATING DISTRIBUTED STORAGE FOR [VIR OCC|VIR OCC] INTEGRALS
 CREATING DISTRIBUTED STORAGE FOR [VIR OCC|OCC OCC] INTEGRALS
 CREATING DISTRIBUTED STORAGE FOR [OCC OCC|OCC OCC] INTEGRALS
 CREATING DISTRIBUTED STORAGE FOR [VIR VIR|OCC OCC] INTEGRALS
 FOR    1 PROCESSORS, THE REPLICATED MEMORY NEEDED IS       73700 WORDS.
 SCHWARZ INEQUALITY OVERHEAD:       465 INTEGRALS, T=        0.00

      DIRECT 4-INDEX TRANSFORMATION 
      SCHWARZ INEQUALITY TEST SKIPPED          0 INTEGRAL BLOCKS
 ----- FROZEN CORE ENERGY =       -47.6259091759
 ... END OF INTEGRAL TRANSFORMATION ...
 CPU     0: STEP CPU TIME=     0.23 TOTAL CPU TIME=          0.3 (      0.0 MIN)
 TOTAL WALL CLOCK TIME=          0.3 SECONDS, CPU UTILIZATION IS    96.67%

     --------------------------------     -----------------------------
     MCHF NEWTON-RAPHSON OPTIMIZATION     CODE WRITTEN BY MICHEL DUPUIS
     --------------------------------     -----------------------------
     PARALLEL VERSION WRITTEN BY G. FLETCHER (ELORET)
     NASA ADVANCED SUPERCOMPUTING DIVISION, AMES RESEARCH CENTER

 NUMBER OF INDEPENDENT ORBITAL ROTATION PARAMETERS =   175
 ..... DONE SOLVING NEWTON-RAPHSON EQUATIONS .....
 CPU     0: STEP CPU TIME=     0.95 TOTAL CPU TIME=          1.2 (      0.0 MIN)
 TOTAL WALL CLOCK TIME=          1.3 SECONDS, CPU UTILIZATION IS    98.41%
 ..... DONE WITH NTN-RPH ORBITAL ROTATIONS ..... 
 CPU     0: STEP CPU TIME=     0.00 TOTAL CPU TIME=          1.2 (      0.0 MIN)
 TOTAL WALL CLOCK TIME=          1.3 SECONDS, CPU UTILIZATION IS    98.41%
 MAXIMUM MEMORY USED BY NTN-RPH CODE WAS     57645 WORDS.

 ITER     TOTAL ENERGY      DEL(E)  LAGRANGIAN ASYMMETRY   SQCDF  MICIT   DAMP
   1      -55.616367929 -0.616367929  0.111324   12    5 1.086E-01  1   0.0000
   2      -55.670762498 -0.054394569  0.019911   12    5 4.616E-01  1   0.0000
   3      -55.706602149 -0.035839651  0.013751   11    6 2.206E-01  1   0.0200
   4      -55.722516912 -0.015914763  0.004770   11    6 4.047E-02  1   0.0055
   5      -55.724538732 -0.002021821  0.000975   14    5 9.341E-04  1   0.0000
   6      -55.724595565 -0.000056833  0.000389   14    5 6.279E-05  1   0.0000
   7      -55.724601192 -0.000005627  0.000165   14    5 1.158E-05  1   0.0000
   8      -55.724602270 -0.000001078  0.000075   14    5 2.633E-06  1   0.0000
   9      -55.724602510 -0.000000240  0.000036   14    5 6.592E-07  1   0.0000
  10      -55.724602569 -0.000000058  0.000018   23    5 1.763E-07  1   0.0000
  11      -55.724602584 -0.000000015  0.000009   23    5 4.945E-08  1   0.0000
  12      -55.724602588 -0.000000004  0.000005   23    5 1.436E-08  1   0.0000
  13      -55.724602589 -0.000000001  0.000002   23    5 4.277E-09  1   0.0000
  14      -55.724602589 -0.000000000  0.000001   23    5 1.292E-09  1   0.0000
  15      -55.724602589 -0.000000000  0.000001   23    5 3.936E-10  1   0.0000

          --------------------
          LAGRANGIAN CONVERGED
          --------------------

 FINAL MCSCF ENERGY IS      -55.7246025892 AFTER  15 ITERATIONS

 -MCCI- BASED ON OPTIMIZED ORBITALS
 ----------------------------------

 PLEASE NOTE: IF THE ACTIVE ORBITALS ARE CANONICALIZED BELOW,
 THE FOLLOWING CI EXPANSION COEFFICIENTS AND THE DENSITY DO NOT
 CORRESPOND TO THE PRINTED ORBITALS.  THE PRINTED EXPANSIONS MATCH
 THE ORBITALS USED DURING THE LAST ITERATION.  IF YOU WISH TO SEE
 CI EXPANSIONS BASED ON THE CANONICAL (OR NATURAL) ORBITALS, YOU
 MUST RUN A CI CALCULATION WITH THAT ORBITAL CHOICE READ IN $VEC.

 Averaged energy =     -55.724602589

 State #    1  Energy =     -55.864201446  S =  0.500

      Det      Coef    Occupancy (Ignoring core)
      ---      ----    --------- --------- -----
        1   -0.889701  11110001110000
        2   -0.059111  11101001110000
        5    0.071264  01111001110000
        8    0.128441  10110101110000
       17    0.142516  11010011110000
       36    0.279715  11110001101000
       71   -0.140742  11110001011000
      211   -0.052122  11110000110100
      386   -0.101821  11110001010010
      393   -0.051853  10110101010010
      701   -0.095738  11110001100001
      717   -0.068747  11010011100001

 State #    2  Energy =     -55.715902969  S =  0.500

      Det      Coef    Occupancy (Ignoring core)
      ---      ----    --------- --------- -----
        1    0.304076  11110001110000
        8   -0.050027  10110101110000
       36    0.777660  11110001101000
       38   -0.058134  11011001101000
       40   -0.057646  01111001101000
       43   -0.086703  10110101101000
       52   -0.086974  11010011101000
       71   -0.453972  11110001011000
       87    0.055885  11010011011000
      106    0.053554  11110000111000
      456    0.074157  11110001001010
      701    0.079445  11110001100001

 State #    3  Energy =     -55.593703353  S =  0.500

      Det      Coef    Occupancy (Ignoring core)
      ---      ----    --------- --------- -----
       36   -0.476492  11110001101000
       71   -0.831173  11110001011000
       78    0.055533  10110101011000
       87    0.082341  11010011011000
      246    0.052321  11110001001100
      316   -0.069440  11110000011100
      456   -0.056569  11110001001010
      806    0.108645  11110001001001
      822    0.066168  11010011001001

 DENSITY MATRIX OVER ACTIVE MO-S

             1           2           3           4           5

    1    1.9738356
    2   -0.0131174   1.6305856
    3   -0.0265252  -0.0059136   1.6232059
    4   -0.0025860  -0.0049245  -0.0093909   1.6489402
    5    0.1099409   0.0317695   0.0641119   0.0453925   0.0353534
    6   -0.0066938  -0.1489650  -0.0091703  -0.0354688  -0.0072619
    7    0.0102685   0.0173125   0.1702358   0.0755021   0.0143201

             6           7

    6    0.0373024
    7   -0.0087921   0.0507769

 FORMING THE "STANDARD FOCK OPERATOR" IN DIRECT AO INTEGRAL MODE...
 ONLY THE    1 CORE AND   21 VIRTUAL ORBITALS WILL BE CANONICALIZED

          ----------------------
          MCSCF NATURAL ORBITALS
          ----------------------

                      1          2          3          4          5
                  -15.9786     1.9819     1.6547     1.6465     1.6413
                     A          A          A          A          A   
    1  N  1  S    1.001089   0.009782  -0.008767  -0.000518   0.003862
    2  N  1  S   -0.002017   0.435490  -0.167210  -0.019560   0.099940
    3  N  1  S   -0.006376   0.322712  -0.266646  -0.027161   0.150616
    4  N  1  X   -0.000066  -0.027615   0.038640   0.380375   0.309594
    5  N  1  Y   -0.000074  -0.049849   0.101948  -0.280764   0.423139
    6  N  1  Z    0.001061   0.088722   0.587804   0.019542  -0.027353
    7  N  1  X   -0.000010  -0.000708   0.041585   0.151016   0.163923
    8  N  1  Y   -0.000008  -0.002773   0.089817  -0.114504   0.227976
    9  N  1  Z   -0.000497   0.012764   0.390725   0.007238   0.024308
   10  N  1 XX    0.000142   0.000670  -0.011006  -0.002021   0.009444
   11  N  1 YY   -0.000016  -0.000797  -0.012240   0.001053  -0.007686
   12  N  1 ZZ   -0.000126   0.000127   0.023246   0.000968  -0.001757
   13  N  1 XY   -0.000210  -0.002201  -0.001259   0.001570  -0.017068
   14  N  1 XZ   -0.000094  -0.001101  -0.001804   0.014873   0.013947
   15  N  1 YZ   -0.000163  -0.002651  -0.001917  -0.011825   0.019692
   16  H  2  S   -0.001595   0.161973   0.109033  -0.340660   0.088806
   17  H  2  S    0.000511  -0.000516   0.032863  -0.053158   0.037417
   18  H  2  X   -0.000663   0.023423   0.012084  -0.029966   0.016218
   19  H  2  Y    0.000534  -0.020684  -0.007006   0.024900   0.014572
   20  H  2  Z    0.000312  -0.004173   0.020421   0.011422  -0.004101
   21  H  3  S   -0.001878   0.218971   0.118766   0.051605  -0.368968
   22  H  3  S    0.000279   0.009241   0.026065   0.009052  -0.098409
   23  H  3  X   -0.000410   0.015561   0.010747   0.023320  -0.007865
   24  H  3  Y   -0.000772   0.029292   0.019768  -0.008862  -0.020799
   25  H  3  Z    0.000562  -0.018534   0.018112  -0.002498   0.023777
   26  H  4  S   -0.001544   0.161366   0.090363   0.316933   0.161481
   27  H  4  S    0.000475  -0.000790   0.030622   0.048589   0.054209
   28  H  4  X    0.000755  -0.028564  -0.010216  -0.036599  -0.003037
   29  H  4  Y   -0.000318   0.010801   0.006369   0.009727   0.023917
   30  H  4  Z    0.000320  -0.004666   0.021156  -0.009405  -0.006243

                      6          7          8
                    0.0335     0.0219     0.0203
                     A          A          A   
    1  N  1  S    0.129073  -0.166724  -0.030629
    2  N  1  S    0.428805  -0.578407  -0.098424
    3  N  1  S   -0.023547  -0.196752  -0.014900
    4  N  1  X    0.347429   0.132540   0.812751
    5  N  1  Y    0.533295   0.443753  -0.443475
    6  N  1  Z    0.157372  -0.642778  -0.079879
    7  N  1  X   -0.027476   0.028746   0.070799
    8  N  1  Y   -0.041151   0.082019  -0.033448
    9  N  1  Z   -0.066714   0.080180   0.018241
   10  N  1 XX   -0.033394  -0.001804   0.043107
   11  N  1 YY    0.028564   0.001001  -0.041745
   12  N  1 ZZ    0.004829   0.000803  -0.001363
   13  N  1 XY    0.066536  -0.016057   0.023973
   14  N  1 XZ   -0.001512  -0.019126  -0.050959
   15  N  1 YZ    0.001499  -0.050248   0.021932
   16  H  2  S   -0.487230   0.203481   0.616539
   17  H  2  S   -0.107226   0.007623   0.142298
   18  H  2  X   -0.049800   0.020046   0.043193
   19  H  2  Y    0.013340  -0.027107  -0.047434
   20  H  2  Z    0.001636   0.018305   0.023968
   21  H  3  S    0.418159   0.731724   0.065942
   22  H  3  S    0.148929   0.136650   0.014680
   23  H  3  X    0.001719   0.039791  -0.040875
   24  H  3  Y    0.008260   0.054490   0.031829
   25  H  3  Z   -0.022706   0.000421  -0.000308
   26  H  4  S   -0.530800   0.316546  -0.511808
   27  H  4  S   -0.124655   0.034531  -0.132179
   28  H  4  X    0.039415  -0.045384   0.049404
   29  H  4  Y   -0.040124   0.003997  -0.009930
   30  H  4  Z    0.000999   0.025240  -0.017678

          ------------------------
          MCSCF OPTIMIZED ORBITALS
          ------------------------

                      1          2          3          4          5
                  -15.9786     0.0000     0.0000     0.0000     0.0000
                     A          A          A          A          A   
    1  N  1  S    1.001089  -0.002230  -0.004065  -0.010115  -0.016708
    2  N  1  S   -0.002017   0.398790   0.005796   0.013934  -0.198353
    3  N  1  S   -0.006376   0.323234   0.050529   0.106023  -0.274037
    4  N  1  X   -0.000066  -0.011141   0.404339   0.051852   0.014582
    5  N  1  Y   -0.000074  -0.018649  -0.000228   0.430724   0.031872
    6  N  1  Z    0.001061   0.051265  -0.005560  -0.010378   0.578169
    7  N  1  X   -0.000010   0.011686   0.210928   0.062561   0.038449
    8  N  1  Y   -0.000008   0.018581   0.032434   0.258569   0.073191
    9  N  1  Z   -0.000497   0.020585   0.021402   0.047900   0.391761
   10  N  1 XX    0.000142   0.002588   0.001980   0.013524  -0.009543
   11  N  1 YY   -0.000016  -0.002469  -0.001672  -0.012499  -0.013459
   12  N  1 ZZ   -0.000126  -0.000118  -0.000308  -0.001025   0.023001
   13  N  1 XY   -0.000210  -0.006213  -0.013480  -0.020651  -0.003992
   14  N  1 XZ   -0.000094  -0.001395   0.023924   0.001730  -0.002178
   15  N  1 YZ   -0.000163  -0.003475  -0.001072   0.024273  -0.003634
   16  H  2  S   -0.001595   0.199435  -0.260836   0.329063   0.121124
   17  H  2  S    0.000511   0.007209  -0.029008   0.079168   0.035101
   18  H  2  X   -0.000663   0.027522  -0.017449   0.035716   0.013005
   19  H  2  Y    0.000534  -0.021798   0.032116  -0.003556  -0.007933
   20  H  2  Z    0.000312  -0.003596   0.005590  -0.007364   0.020973
   21  H  3  S   -0.001878   0.213036  -0.189584  -0.391542   0.119487
   22  H  3  S    0.000279   0.003904  -0.055037  -0.102313   0.023786
   23  H  3  X   -0.000410   0.016342   0.017903  -0.021913   0.011885
   24  H  3  Y   -0.000772   0.030279  -0.022296  -0.013310   0.020329
   25  H  3  Z    0.000562  -0.016047   0.012626   0.025794   0.017746
   26  H  4  S   -0.001544   0.198740   0.417188  -0.012598   0.121835
   27  H  4  S    0.000475   0.007553   0.087165   0.027654   0.035878
   28  H  4  X    0.000755  -0.031514  -0.037487   0.017047  -0.013590
   29  H  4  Y   -0.000318   0.013772   0.023750   0.018025   0.007555
   30  H  4  Z    0.000320  -0.003936  -0.009727   0.000370   0.021001

                      6          7          8          9         10
                    0.0000     0.0000     0.0000     0.1586     0.2095
                     A          A          A          A          A   
    1  N  1  S    0.209714   0.007443   0.033825  -0.141399   0.001648
    2  N  1  S    0.739363   0.025756   0.100846  -0.216601  -0.000403
    3  N  1  S    0.179135  -0.043937  -0.103748   1.373516  -0.037238
    4  N  1  X   -0.031559   0.934902   0.008538   0.024083  -0.155980
    5  N  1  Y   -0.069076  -0.127563   0.860705   0.046529   0.090418
    6  N  1  Z    0.666013  -0.063375  -0.119117  -0.222127   0.002462
    7  N  1  X   -0.037393   0.076703  -0.026445  -0.090835   0.746396
    8  N  1  Y   -0.073147  -0.032273   0.051901  -0.189108  -0.479810
    9  N  1  Z   -0.089207   0.008394   0.001792   0.477516   0.004670
   10  N  1 XX   -0.018574   0.024988  -0.044017   0.042517  -0.004928
   11  N  1 YY    0.016236  -0.026338   0.038296   0.000756   0.000335
   12  N  1 ZZ    0.002338   0.001350   0.005721  -0.043273   0.004593
   13  N  1 XY    0.041366   0.046356   0.032205  -0.055637   0.012481
   14  N  1 XZ    0.022147  -0.046728   0.011356  -0.031695   0.081036
   15  N  1 YZ    0.043016   0.015060  -0.029217  -0.063579  -0.055331
   16  H  2  S   -0.454968   0.358592  -0.504607   0.351008  -0.469038
   17  H  2  S   -0.069269   0.083618  -0.130103  -0.839175   1.658159
   18  H  2  X   -0.042935   0.019508  -0.043272  -0.065787   0.080701
   19  H  2  Y    0.034417  -0.037666   0.016929   0.048089  -0.047355
   20  H  2  Z   -0.017740   0.025316   0.000181   0.010256  -0.070703
   21  H  3  S   -0.455232   0.297165   0.609120   0.205341   0.054119
   22  H  3  S   -0.055307   0.085158   0.164957  -0.740756  -0.179489
   23  H  3  X   -0.028797  -0.030202   0.035636  -0.028061   0.003413
   24  H  3  Y   -0.046107   0.036624   0.018408  -0.080795  -0.007884
   25  H  3  Z   -0.010183  -0.008069  -0.013893   0.075196   0.008648
   26  H  4  S   -0.449469  -0.609952  -0.044879   0.370946   0.396751
   27  H  4  S   -0.070295  -0.159210  -0.021075  -0.889937  -1.406867
   28  H  4  X    0.050740   0.052599  -0.010395   0.064038   0.068048
   29  H  4  Y   -0.019189  -0.022818  -0.022887  -0.044258  -0.042743
   30  H  4  Z   -0.019503  -0.013339   0.020922   0.020649   0.070130

                     11         12         13         14         15
                    0.2298     0.5349     0.6362     0.7011     0.7467
                     A          A          A          A          A   
    1  N  1  S    0.034471  -0.081289   0.099887  -0.026003   0.062647
    2  N  1  S    0.076131  -0.125369   0.358844  -0.065383   0.153338
    3  N  1  S   -0.180104   0.375887   0.168993   0.064544  -0.195752
    4  N  1  X   -0.010722  -0.332841   0.100697  -0.402902  -0.140391
    5  N  1  Y    0.013141  -0.566147   0.182198   0.215865   0.083413
    6  N  1  Z    0.050336  -0.400640  -0.590995   0.035902  -0.082036
    7  N  1  X    0.270153   0.592423  -0.411990   1.641538   0.448615
    8  N  1  Y    0.294550   1.052916  -0.845131  -0.917124  -0.334687
    9  N  1  Z   -0.187621   0.409550   1.115054  -0.036422   0.119144
   10  N  1 XX    0.051612   0.000400  -0.017803   0.009101  -0.161702
   11  N  1 YY   -0.034822  -0.017967  -0.028253  -0.001150   0.154262
   12  N  1 ZZ   -0.016790   0.017567   0.046056  -0.007951   0.007441
   13  N  1 XY   -0.079067  -0.012113   0.040238   0.005114  -0.097095
   14  N  1 XZ    0.046272   0.012023   0.018707  -0.105551   0.016648
   15  N  1 YZ    0.065806   0.021485   0.047343   0.053481   0.009038
   16  H  2  S    0.306438  -0.292788  -0.332977   0.638170   0.314064
   17  H  2  S   -0.910838  -0.411474   0.423679   0.528061   0.216989
   18  H  2  X   -0.013002  -0.013435   0.007256   0.171634   0.193578
   19  H  2  Y   -0.002495   0.027684  -0.051301  -0.167808   0.315930
   20  H  2  Z   -0.004051   0.057729   0.062750   0.192568  -0.078747
   21  H  3  S   -0.635253   0.137825  -0.814250   0.035298  -0.088238
   22  H  3  S    2.201241   0.726443  -0.504849   0.010740   0.002360
   23  H  3  X    0.043882   0.032318  -0.091075  -0.215317   0.404444
   24  H  3  Y    0.078837   0.083820  -0.029281   0.091968  -0.221206
   25  H  3  Z   -0.067320  -0.054074   0.054452  -0.007599  -0.017438
   26  H  4  S    0.402880  -0.270505  -0.325145  -0.598539  -0.374632
   27  H  4  S   -1.266359  -0.422819   0.384124  -0.597693  -0.058622
   28  H  4  X    0.025565   0.033338   0.038220   0.249316  -0.219242
   29  H  4  Y   -0.012152   0.013036   0.047488  -0.068665  -0.323789
   30  H  4  Z    0.001527   0.060976   0.020537  -0.198894   0.079570

                     16         17         18         19         20
                    0.9938     1.0312     1.1724     1.3693     1.3880
                     A          A          A          A          A   
    1  N  1  S   -0.610166  -0.273134  -0.004199  -0.236170  -0.339228
    2  N  1  S   -1.295711  -0.576515  -0.009380  -0.506639  -0.714545
    3  N  1  S    2.533713   1.288433   0.023397   0.765935   1.320502
    4  N  1  X    0.035658   0.026693  -0.285969   0.035088  -0.038308
    5  N  1  Y    0.085071   0.000541   0.159894   0.076553  -0.071161
    6  N  1  Z    0.159368   0.058654   0.006124  -0.052560  -0.029184
    7  N  1  X   -0.245868  -0.237945   1.003067   0.179224  -0.192170
    8  N  1  Y   -0.488410  -0.202074  -0.624680   0.383289  -0.304346
    9  N  1  Z    0.096571   0.502400   0.028304   0.307904   0.688759
   10  N  1 XX   -0.106456   0.016604   0.113341   0.083933   0.042754
   11  N  1 YY   -0.090326   0.161975  -0.105479   0.110128   0.000072
   12  N  1 ZZ    0.196782  -0.178580  -0.007862  -0.194061  -0.042826
   13  N  1 XY   -0.011488   0.114117   0.078364   0.065092  -0.066807
   14  N  1 XZ    0.043217   0.099772   0.098467  -0.028769   0.043267
   15  N  1 YZ    0.073046   0.150554  -0.040593  -0.042302   0.061348
   16  H  2  S   -0.306595  -0.208598   0.562795  -0.186517  -0.380699
   17  H  2  S   -0.302603  -0.184067   0.235933  -0.137779   0.009280
   18  H  2  X   -0.022596   0.074743  -0.365555  -0.431086   0.031729
   19  H  2  Y    0.052975   0.330162  -0.151786  -0.528985   0.000737
   20  H  2  Z    0.294447  -0.033793  -0.408658  -0.014433  -0.630613
   21  H  3  S   -0.545815  -0.281277  -0.018427  -0.181860  -0.409826
   22  H  3  S   -0.395411  -0.224978  -0.013107   0.051898  -0.338501
   23  H  3  X    0.068324  -0.244485   0.140955   0.036494  -0.034757
   24  H  3  Y    0.044068  -0.456260  -0.119979  -0.032290  -0.081476
   25  H  3  Z    0.276808  -0.466901  -0.003884  -0.439684   0.392856
   26  H  4  S   -0.341238  -0.115341  -0.579459  -0.154339  -0.375739
   27  H  4  S   -0.289905  -0.127371  -0.220776  -0.118720   0.039034
   28  H  4  X    0.025925   0.224608  -0.035720  -0.238426  -0.039719
   29  H  4  Y   -0.030530   0.172299   0.440691  -0.583850  -0.007521
   30  H  4  Z    0.314821  -0.033236   0.390924  -0.043750  -0.638776

                     21         22         23         24         25
                    1.6850     1.7263     1.8933     1.9198     2.1425
                     A          A          A          A          A   
    1  N  1  S   -0.015690   0.042532  -0.191807  -0.139775  -0.073198
    2  N  1  S    0.007368   0.183818  -0.447544  -0.318452  -0.140164
    3  N  1  S    0.419666   0.820188  -0.011801   0.028879   0.286699
    4  N  1  X    0.126852  -0.081087  -0.119233   0.469778   0.023712
    5  N  1  Y   -0.034480   0.033513   0.450839  -0.031535   0.063366
    6  N  1  Z    0.031198   0.116715  -0.218654  -0.140607  -0.022087
    7  N  1  X    0.783583  -0.315529  -0.223638   0.003593   0.052947
    8  N  1  Y   -0.460685   0.228993  -0.137699  -0.202761   0.066397
    9  N  1  Z    0.165711   0.294844   0.041735   0.046917   0.410277
   10  N  1 XX   -0.085223  -0.077086   0.085542  -0.077054  -0.370074
   11  N  1 YY    0.077649  -0.005400   0.061646   0.174112  -0.481911
   12  N  1 ZZ    0.007574   0.082486  -0.147188  -0.097058   0.851985
   13  N  1 XY    0.024711   0.141059   0.090083  -0.014455  -0.471932
   14  N  1 XZ   -0.085798   0.096552   0.001708  -0.226040  -0.141782
   15  N  1 YZ    0.060042   0.043352  -0.260906  -0.047009  -0.313150
   16  H  2  S    0.261225  -0.189839  -0.048246   0.019163  -0.115071
   17  H  2  S    0.060129  -0.513888  -0.287555   0.220835  -0.069263
   18  H  2  X   -0.053381  -0.770781  -0.056556   0.438020  -0.136550
   19  H  2  Y    0.312971   0.366171   0.529025  -0.381352   0.040433
   20  H  2  Z   -0.594466   0.141438   0.105781  -0.306842  -0.206545
   21  H  3  S   -0.140209  -0.172672  -0.143284  -0.088369  -0.101009
   22  H  3  S    0.130074   0.220123   0.355576   0.248024   0.064909
   23  H  3  X   -0.551741   0.356957   0.164938   0.666093  -0.199544
   24  H  3  Y    0.452053  -0.064443   0.797943   0.245745  -0.225999
   25  H  3  Z    0.024479   0.154469  -0.368219  -0.232399  -0.656905
   26  H  4  S   -0.315787   0.050676   0.006046  -0.065209  -0.122591
   27  H  4  S   -0.447758  -0.290494   0.144072  -0.347261  -0.046424
   28  H  4  X    0.290481   0.663534  -0.338484   0.704157   0.119920
   29  H  4  Y   -0.477002  -0.225192   0.325874   0.187107   0.038868
   30  H  4  Z    0.486415  -0.351320  -0.308246   0.137687  -0.214048

                     26         27         28         29
                    2.2276     2.5464     2.6127     3.1158
                     A          A          A          A   
    1  N  1  S    0.027236   0.009707  -0.186098   0.093487
    2  N  1  S    0.053030   0.005197  -0.203607   0.098198
    3  N  1  S   -0.099415  -0.231001   2.485953  -0.936166
    4  N  1  X   -0.077179   0.344305  -0.129238  -0.140833
    5  N  1  Y    0.026046  -0.174797  -0.285503  -0.302099
    6  N  1  Z    0.008530  -0.030146   0.326155  -0.004628
    7  N  1  X    0.068426   1.213936  -0.334529  -0.188013
    8  N  1  Y    0.002381  -0.625712  -0.847787  -0.427195
    9  N  1  Z   -0.094758  -0.073694   0.789813  -0.003902
   10  N  1 XX   -0.789312   0.067122   0.259096  -0.914366
   11  N  1 YY    0.916211  -0.103479   0.207908   0.346543
   12  N  1 ZZ   -0.126899   0.036357  -0.467005   0.567822
   13  N  1 XY   -0.471463   0.063765  -0.159507   1.282120
   14  N  1 XZ    0.193699   1.113476  -0.432987  -0.242780
   15  N  1 YZ    0.008391  -0.534546  -1.013153  -0.447586
   16  H  2  S    0.023084   0.914867  -0.541017   0.883173
   17  H  2  S   -0.057520   0.405903  -0.052090   0.254321
   18  H  2  X   -0.373781   0.641558  -0.161210   0.650311
   19  H  2  Y   -0.292180  -0.407734   0.313346  -0.475289
   20  H  2  Z    0.120502   0.007778   0.198795  -0.395247
   21  H  3  S    0.040302   0.116170  -1.453093  -0.783164
   22  H  3  S   -0.002521   0.056395  -0.575137  -0.209457
   23  H  3  X   -0.336115  -0.188306  -0.418567  -0.306148
   24  H  3  Y    0.223358   0.199772  -0.772737  -0.558575
   25  H  3  Z    0.121616  -0.047093   0.603769   0.450230
   26  H  4  S    0.038214  -0.789153  -0.677746   0.821213
   27  H  4  S    0.082840  -0.386983  -0.103403   0.235233
   28  H  4  X   -0.002983   0.575769   0.426893  -0.711932
   29  H  4  Y    0.404620  -0.383057  -0.052966   0.331811
   30  H  4  Z   -0.034462  -0.004291   0.203622  -0.389811
 .....DONE WITH MCSCF ITERATIONS.....
 CPU     0: STEP CPU TIME=    10.71 TOTAL CPU TIME=         11.9 (      0.2 MIN)
 TOTAL WALL CLOCK TIME=         12.0 SECONDS, CPU UTILIZATION IS    99.92%

     ----------------------------------------------------------------
     PROPERTY VALUES FOR THE MCSCF SELF-CONSISTENT FIELD WAVEFUNCTION
     ----------------------------------------------------------------

          -----------------
          ENERGY COMPONENTS
          -----------------

         WAVEFUNCTION NORMALIZATION =       1.0000000000

                ONE ELECTRON ENERGY =     -93.8136756509
                TWO ELECTRON ENERGY =      26.9815026534
           NUCLEAR REPULSION ENERGY =      11.1075704084
                                      ------------------
                       TOTAL ENERGY =     -55.7246025892

 ELECTRON-ELECTRON POTENTIAL ENERGY =      26.9815026534
  NUCLEUS-ELECTRON POTENTIAL ENERGY =    -149.5051746189
   NUCLEUS-NUCLEUS POTENTIAL ENERGY =      11.1075704084
                                      ------------------
             TOTAL POTENTIAL ENERGY =    -111.4161015572
               TOTAL KINETIC ENERGY =      55.6914989680
                 VIRIAL RATIO (V/T) =       2.0005944107

          ---------------------------------------
          MULLIKEN AND LOWDIN POPULATION ANALYSES
          ---------------------------------------

     ATOMIC MULLIKEN POPULATION IN EACH MOLECULAR ORBITAL

                      1          2          3          4          5

                  2.000000   1.981865   1.654659   1.646515   1.641261

    1             2.000652   1.355854   1.538280   0.899510   1.134432
    2            -0.000179   0.165924   0.037256   0.389654   0.034479
    3            -0.000310   0.294828   0.051942   0.019750   0.379305
    4            -0.000164   0.165260   0.027181   0.337601   0.093045

                      6          7          8

                  0.033458   0.021930   0.020312

    1             0.014219   0.011804   0.011238
    2             0.006946   0.000648   0.005314
    3             0.004014   0.007795   0.000154
    4             0.008279   0.001683   0.003605
 WARNING! MCSCF POPULATIONS SHOWN ABOVE ARE FOR THE NATURAL ORBITALS.
 IGNORE THE ABOVE DATA FOR MCSCF FUNCTIONS WHICH ARE NOT OF -FORS- TYPE.
 THE FOLLOWING POPULATIONS ARE CORRECT FOR ANY MCSCF WAVEFUNCTION.

               ----- POPULATIONS IN EACH AO -----
                             MULLIKEN      LOWDIN
              1  N  1  S      2.00229     1.90356
              2  N  1  S      0.82095     0.57820
              3  N  1  S      0.69802     0.41536
              4  N  1  X      0.66156     0.58686
              5  N  1  Y      0.70746     0.64405
              6  N  1  Z      0.86682     0.81494
              7  N  1  X      0.30940     0.41420
              8  N  1  Y      0.35391     0.43942
              9  N  1  Z      0.52800     0.56765
             10  N  1 XX      0.00069     0.17811
             11  N  1 YY      0.00164     0.15960
             12  N  1 ZZ      0.00480     0.14465
             13  N  1 XY      0.00472     0.01167
             14  N  1 XZ      0.00574     0.00888
             15  N  1 YZ      0.00000     0.01169
             16  H  2  S      0.54373     0.42541
             17  H  2  S      0.04208     0.15100
             18  H  2  X      0.02499     0.04397
             19  H  2  Y      0.01830     0.03248
             20  H  2  Z      0.01094     0.02749
             21  H  3  S      0.64026     0.49543
             22  H  3  S      0.05585     0.14814
             23  H  3  X      0.01596     0.03116
             24  H  3  Y      0.02489     0.04546
             25  H  3  Z      0.02052     0.04514
             26  H  4  S      0.53793     0.42065
             27  H  4  S      0.04497     0.15154
             28  H  4  X      0.02956     0.04860
             29  H  4  Y      0.01299     0.02745
             30  H  4  Z      0.01104     0.02722

          ----- MULLIKEN ATOMIC OVERLAP POPULATIONS -----
          (OFF-DIAGONAL ELEMENTS NEED TO BE MULTIPLIED BY 2)

             1           2           3           4

    1    6.1243216
    2    0.2831196   0.3696055
    3    0.2819702  -0.0070483   0.4906197
    4    0.2765793  -0.0056361  -0.0080638   0.3736114

          TOTAL MULLIKEN AND LOWDIN ATOMIC POPULATIONS
       ATOM         MULL.POP.    CHARGE          LOW.POP.     CHARGE
    1 N             6.965991    0.034009         6.878850    0.121150
    2 H             0.640041    0.359959         0.680347    0.319653
    3 H             0.757478    0.242522         0.765333    0.234667
    4 H             0.636491    0.363509         0.675469    0.324531

          MULLIKEN SPHERICAL HARMONIC POPULATIONS
       ATOM           S       P       D      F      G      H      I    TOTAL
    1 N             3.52    3.43    0.02   0.00   0.00   0.00   0.00    6.97
    2 H             0.59    0.05    0.00   0.00   0.00   0.00   0.00    0.64
    3 H             0.70    0.06    0.00   0.00   0.00   0.00   0.00    0.76
    4 H             0.58    0.05    0.00   0.00   0.00   0.00   0.00    0.64

          ---------------------
          ELECTROSTATIC MOMENTS
          ---------------------

 POINT   1           X           Y           Z (BOHR)    CHARGE
                -0.000002   -0.000004   -0.177185        1.00 (A.U.)
         DX          DY          DZ         /D/  (DEBYE)
    -0.358391   -0.723302    2.116932    2.265615
 ...... END OF PROPERTY EVALUATION ......
 CPU     0: STEP CPU TIME=     0.00 TOTAL CPU TIME=         11.9 (      0.2 MIN)
 TOTAL WALL CLOCK TIME=         12.0 SECONDS, CPU UTILIZATION IS    99.83%

     -------------------------------------------------
     GMC-PT/GMC-QDPT or general MCSCF input parameters
     -------------------------------------------------
 # of frozen core orbs. =         0 ->         0
 # of doubly occ. orbs. =         1
 # of active      orbs. =         7
 # of virtual     orbs. =        21
 # of active electrons  =         7
 # of states in CI      =         3
 Highest state in CI    =         3
 kstate =  1 1 1
 avecoe =  0.333 0.333 0.333
 State symmetry           = A           
 Assigned symmetry number = 1

 <<<Act. MO sym.: 1111111

 <<<Division of 1-ext.:  0
 <<<Division of 2-ext.:  0

     ------------------------
     Orbital canonicalization
     ------------------------

 MOs are canonicalized for core, virtual, and invariant-active orbital spaces.
 This is a part of the GMC-QDPT calculation.
 SCHWARZ INEQUALITY OVERHEAD:       465 INTEGRALS, T=        0.00
 DIRECT TRANSFORMATION SKIPS AO INTEGRAL STORAGE ON DISK.

 Averaged energy =     -55.724602589

 State #    1  Energy =     -55.864201446  S =  0.500
 State #    2  Energy =     -55.715902969  S =  0.500
 State #    3  Energy =     -55.593703353  S =  0.500

 Orbital energies for filled orbital space
  -15.978638
 Orbital energies for active orbital space
   -1.497093  -0.955807  -0.840271  -0.722671   0.350290
    0.373632   0.141031
 Orbital energies for external orbital space
    0.158560   0.209451   0.229833   0.534877   0.636193
    0.701138   0.746675   0.993819   1.031194   1.172425
    1.369307   1.388021   1.685042   1.726330   1.893300
    1.919818   2.142479   2.227585   2.546378   2.612666
    3.115761

 Zero values mean non-canonical orbitals.
 ... done with orbital canonicalization ...
 CPU     0: STEP CPU TIME=     0.68 TOTAL CPU TIME=         12.6 (      0.2 MIN)
 TOTAL WALL CLOCK TIME=         12.6 SECONDS, CPU UTILIZATION IS    99.92%

     --------------------------------------------
     PARTIAL TWO ELECTRON INTEGRAL TRANSFORMATION
     --------------------------------------------

 NUMBER OF CORE MOLECULAR ORBITALS     =    0
 NUMBER OF OCCUPIED MOLECULAR ORBITALS =    8
 TOTAL NUMBER OF MOLECULAR ORBITALS    =   29
 TOTAL NUMBER OF ATOMIC ORBITALS       =   30
 THRESHOLD FOR KEEPING TRANSFORMED 2E- INTEGRALS = 1.000E-09
 AO INTEGRALS WILL BE CALCULATED IN DIRECT MODE...
 DIRECT TRANSFORMATION SKIPS AO INTEGRAL STORAGE ON DISK.
 SCHWARZ INEQUALITY OVERHEAD:       465 INTEGRALS, T=        0.00

 PLAN A: REQUIREMENTS FOR FULLY IN-MEMORY TRANSFORMATION:
 # OF WORDS AVAILABLE =            100000000
 # OF WORDS NEEDED    =               221798

 PARALLEL ONLY WORKS WITH THE SEGMENTED ALGORITHM.
 ADJUSTING MEMORY TO USE SEGMENTED ALGORITHM.


 PLAN B: REQUIREMENTS FOR THE SEGMENTED TRANSFORMATION:
       MINIMUM=         124148 WORDS FOR 1 MOLECULAR ORBITAL PER PASS
       MAXIMUM=         221798 WORDS FOR ALL MOLECULAR ORBITALS IN 1 PASS
              (          13950 EXTRA WORDS INCLUDES 1 EXTRA ORBITAL/PASS)
 THIS RUN USES=         221798 WORDS,
 DISTRIBUTING   1 PASSES EACH CONTAINING     8 ORBITALS OVER   1 PROCESSORS.

 CHOOSING SEGMENTED PARTIAL TRANSFORMATION...
 DIRECT TRANSFORMATION SKIPS AO INTEGRAL STORAGE ON DISK.
 PASS #   1 TOOK        0.04 SECONDS.
 TOTAL NUMBER OF TRANSFORMED 2E- INTEGRALS KEPT =        29226
 ... END OF INTEGRAL TRANSFORMATION ...
 CPU     0: STEP CPU TIME=     0.04 TOTAL CPU TIME=         12.7 (      0.2 MIN)
 TOTAL WALL CLOCK TIME=         12.7 SECONDS, CPU UTILIZATION IS    99.84%

     --------     ------------------------------------------
     GMC-QDPT     Program written by H.Nakano (Kyushu Univ.)
     --------     ------------------------------------------

 *** Reference space

 Reference type: ORMAS (= Occupation restricted multiple active space)
 # of orbitals          =  7
 # of minimum electrons =  7
 # of maximum electrons =  7
 State symmetry    =    1 (input)
 2*Sz              =    1 (input)
 Spin multiplicity =    2 (input)
 Dimension of reference space =      1225  (from      3432 walks)

 Dimension of reference space =      1225  (from      1225 walks)

 <<<Ionized spaces for Ref-CI:
      0:         1225 /   -1-0:         1960 /  0-1-0:         2891

 ***                    ***
 *** Reference space CI ***
 ***                    ***

 Converged after   37 iterations

 Reference wavefunctions:

 State #    1  Energy =     -55.864201446  S =  0.500

      Det      Coef    Occupancy (Ignoring core)
      ---      ----    --------- --------- -----
        1   -0.973348  11110001110000
       36   -0.075617  11110001101000
      143   -0.055171  11011001100100
      393   -0.060947  10110101010010
      717   -0.056644  11010011100001

 State #    2  Energy =     -55.715902969  S =  0.500

      Det      Coef    Occupancy (Ignoring core)
      ---      ----    --------- --------- -----
        1    0.079914  11110001110000
       36   -0.976808  11110001101000
      122    0.051876  11010010111000
      463   -0.062926  10110101001010
      823   -0.051508  10110011001001

 State #    3  Energy =     -55.593703353  S =  0.500

      Det      Coef    Occupancy (Ignoring core)
      ---      ----    --------- --------- -----
       71    0.977448  11110001011000
      248   -0.056873  11011001001100
      822   -0.058490  11010011001001

 Davidson method: CPU/Wall time =           0.47 /           0.48 sec.

 Oscillator strength (invalid if E(1)/=E(GS)):
 -----------------------------------------
   State                        f
 -----------------------------------------
     2     F(REF-CI)=        0.0032337307
     3     F(REF-CI)=        0.0033102482
 -----------------------------------------

 Dipole moment matrix elements, x, y, z, in A.U.

 Dimension of ionized spaces for PT:
 (N-2) space:         1715 /  (N-1) space:         2842 /  N space:         2891
 (N+1) space:         2842 /  (N+2) space:         1715

 <<<Ionized spaces for internal:
         0:         1225 /      -1-0:         1960 /     0-1-0:         2891
  -1-0-1-0:         2842 / 0-1-0-1-0:         3381

 Diagonal elements of averaged one-particle density matrix:
       2       3       4       5       6       7       8
  0.9932  0.9863  0.9852  0.9913  0.0123  0.0121  0.0196
  0.9885  0.6600  0.6576  0.6618  0.0099  0.0085  0.0138

 Orbital energies:
 -------- Doubly-occupied orbitals (highest several orbs.) -------
             1
 -1.597864D+01
 -------- Active orbitals ----------------------------------------
             2            3            4            5            6
 -1.497093D+00-9.558069D-01-8.402711D-01-7.226715D-01 3.502902D-01
             7            8
  3.736315D-01 1.410306D-01
 -------- External orbitals (lowest several orbs.) ---------------
             9           10           11           12           13
  1.585604D-01 2.094510D-01 2.298331D-01 5.348768D-01 6.361928D-01
            14           15           16           17           18
  7.011375D-01 7.466745D-01 9.938188D-01 1.031194D+00 1.172425D+00

 *** Quasi-degeneracy checking

 === Det (|Ci| > 1.0D-01 and dE < 5.0D-03)

 # of small denominators (single excitations)
 State       dEmin  dE < 5.0D-03  dE < 5.0D-04  dE < 5.0D-05  dE < 5.0D-06
 ----- ----------- ------------- ------------- ------------- -------------
     1    5.00D-03             0             0             0             0
     2    5.00D-03             0             0             0             0
     3    5.00D-03             0             0             0             0

 # of small denominators (double excitations)
 State       dEmin  dE < 5.0D-03  dE < 5.0D-04  dE < 5.0D-05  dE < 5.0D-06
 ----- ----------- ------------- ------------- ------------- -------------
     1    5.00D-03             0             0             0             0
     2    5.00D-03             0             0             0             0
     3    5.00D-03             0             0             0             0

 *** Zeroth-Order Setup (Granovsky's zeroth-order vectors)
 Zeroth-order effective Hamiltonian
  (= Sum_i e(i)*<I|a+(i)a(i)|J> ):
                   1            2            3
     1 -7.201507D+00
     2  1.639167D-02-7.102150D+00
     3 -3.442392D-04-1.368697D-03-6.981985D+00

 Zeroth-order vectors:
 State #    1
       MC st            1           2           3
       Coeff    9.873D-01  -1.587D-01   5.523D-04
 State #    2
       MC st            2           1           3
       Coeff   -9.873D-01  -1.587D-01  -1.196D-02
 State #    3
       MC st            3           2           1
       Coeff    9.999D-01  -1.172D-02  -2.443D-03

 *** GMC-QDPT computation

 (Integral reading:  CPU/Wall time =           0.00 /           0.00 sec.)

 One-external:
   0 -ionized terms: CPU/Wall time =           0.03 /           0.03 sec.
 (-1)-ionized terms: CPU/Wall time =           0.09 /           0.09 sec.
 (+1)-ionized terms: CPU/Wall time =           0.02 /           0.02 sec.
 (+1)-ionized terms: CPU/Wall time =           0.00 /           0.01 sec.
 (+2)-ionized terms: CPU/Wall time =           0.01 /           0.00 sec.

 Internal:
 # of macro loops for internal contribution =         1 (input)
 Loop:    1
 Dimension of internal CISD space     =         0  (after screening)
 Space construction: CPU/Wall time =           0.01 /           0.02 sec.
 Internal terms:     CPU/Wall time =           0.00 /           0.00 sec.

 Two-external:
   0 -ionized terms: CPU/Wall time =           0.06 /           0.06 sec.
 (-1)-ionized terms: CPU/Wall time =           1.00 /           0.99 sec.
 (-2)-ionized terms: CPU/Wall time =           0.17 /           0.17 sec.

 Total time:         CPU/Wall time =           1.39 /           1.39 sec.

 ***                  ***
 *** GMC-QDPT Results ***
 ***                  ***

 Diagonal elements of effective Hamiltonian:
 Heff(  1) =   -55.95953603
 Heff(  2) =   -55.82715289
 Heff(  3) =   -55.70453640

 Off-diagonal elements of effective Hamiltonian:
                   1            2
     2  2.061942D-02
     3  2.971529D-04-1.434860D-03

 ******** GMC-QDPT energies ********
 ----------------------------------------------------------------------------
   State                        1st order                           2nd order
 ----------------------------------------------------------------------------
     1     E(REF-CI)=      -55.8642014455   E(GMC-QDPT2)=      -55.9626742794
     2     E(REF-CI)=      -55.7159029686   E(GMC-QDPT2)=      -55.8240314392
     3     E(REF-CI)=      -55.5937033534   E(GMC-QDPT2)=      -55.7045195968
 ----------------------------------------------------------------------------

 Excitation energies (invalid if E(1)/=E(GS)):
 ----------------------------------------------------------------------------
   State                        1st order                           2nd order
 ----------------------------------------------------------------------------

     TZ Sorted GMC-PT ENERGIES:
         1      -55.9626742794
         2      -55.8240314392
         3      -55.7045195968
     2     E(REF-CI)=        4.0354092 eV   E(GMC-QDPT2)=        3.7726658 eV
     3     E(REF-CI)=        7.3606318 eV   E(GMC-QDPT2)=        7.0247503 eV
 ----------------------------------------------------------------------------

 Main characters of perturbed GMC-QDPT states:

 State #    1  Energy =     -55.962674279  S =  0.500

      Det      Coef    Occupancy (Ignoring core)
      ---      ----    --------- --------- -----
        1   -0.973979  11110001110000
       36   -0.067488  11110001101000
      143   -0.055283  11011001100100
      393   -0.060965  10110101010010
      717   -0.056476  11010011100001

 State #    2  Energy =     -55.824031439  S =  0.500

      Det      Coef    Occupancy (Ignoring core)
      ---      ----    --------- --------- -----
        1    0.071811  11110001110000
       36   -0.977406  11110001101000
      122    0.051908  11010010111000
      463   -0.062965  10110101001010
      823   -0.051528  10110011001001

 State #    3  Energy =     -55.704519597  S =  0.500

      Det      Coef    Occupancy (Ignoring core)
      ---      ----    --------- --------- -----
       71    0.977450  11110001011000
      248   -0.056871  11011001001100
      822   -0.058491  11010011001001

 <<<Max |V/de| = 2.583D-02  Thresh = 1.000D+00

 Oscillator strength (invalid if E(1)/=E(GS)):
 ----------------------------------------------------------------------------
   State                        1st order                           2nd order
 ----------------------------------------------------------------------------
     2     F(REF-CI)=        0.0032337307     F(GMC-PT2)=        0.0031204622
     3     F(REF-CI)=        0.0033102482     F(GMC-PT2)=        0.0032624885
 ----------------------------------------------------------------------------

 Dipole moment matrix elements, x, y, z, in A.U.
States    1    1       -0.1388504137       -0.2832543468        0.6773495156
States    1    2        0.0079029708        0.0017595563        0.1835626544
States    1    3        0.1159318036       -0.0731866387       -0.0126540143
States    2    1        0.0079029708        0.0017595563        0.1835626544
States    2    2       -0.1793102465       -0.2714977173        0.3342083475
States    2    3       -0.2326200209        0.1192350236        0.0006995896
States    3    1        0.1159318036       -0.0731866387       -0.0126540143
States    3    2       -0.2326200209        0.1192350236        0.0006995896
States    3    3       -0.2011826154       -0.4762607117        0.3020452886

 Oscillator strength (valid only when positive): 
 ----------------------------------------------------------------------------
  States                        1st order                           2nd order
 ----------------------------------------------------------------------------
  1  1     F(REF-CI)=        0.0000000000     F(GMC-PT2)=        0.0000000000
  1  2     F(REF-CI)=       -0.0032337307     F(GMC-PT2)=       -0.0031204622
  1  3     F(REF-CI)=       -0.0033102482     F(GMC-PT2)=       -0.0032624885
  2  1     F(REF-CI)=        0.0032337307     F(GMC-PT2)=        0.0031204622
  2  2     F(REF-CI)=        0.0000000000     F(GMC-PT2)=        0.0000000000
  2  3     F(REF-CI)=       -0.0056153763     F(GMC-PT2)=       -0.0054441273
  3  1     F(REF-CI)=        0.0033102482     F(GMC-PT2)=        0.0032624885
  3  2     F(REF-CI)=        0.0056153763     F(GMC-PT2)=        0.0054441273
  3  3     F(REF-CI)=        0.0000000000     F(GMC-PT2)=        0.0000000000
 CPU     0: STEP CPU TIME=     1.93 TOTAL CPU TIME=         14.6 (      0.2 MIN)
 TOTAL WALL CLOCK TIME=         14.6 SECONDS, CPU UTILIZATION IS    99.86%

     !!! DIABATIZATION FOR REF CI STATES !!!

 *******************************************************
          $DMO GROUP FOUND IN THE INPUT.
        DIABATIZATION OF ADIABATIC STATES BEGINS.
     PROGRAMMED BY TAO ZENG (CARLETON UNIVERSITY).
               Email: toby.zeng@carleton.ca
     See T. Zeng, J. Chem. Phys. 2017, 146, 144103
 *******************************************************

 *************************************************************************
     STEP 1: TRANSFORMATION OF ADIABATIC STATES TO THE DMO REPRESENTATION
         See Atchity and Ruedenberg, J. Chem. Phys. 1999, 111, 2910
 *************************************************************************

Read in Diabatic Molecualr Orbitals:

                      1          2          3          4          5

    1  N  1  S    0.008609   0.000000   0.000000  -0.013219   0.279491
    2  N  1  S    0.442914  -0.000000   0.000000  -0.184329   0.867803
    3  N  1  S    0.276913   0.000000  -0.000000  -0.288315   0.144236
    4  N  1  X   -0.000000   0.493155  -0.024636  -0.000000  -0.000000
    5  N  1  Y    0.000000   0.024636   0.493155  -0.000000   0.000000
    6  N  1  Z    0.090197   0.000000   0.000000   0.593421   0.705309
    7  N  1  X   -0.000000   0.210628  -0.010522   0.000000   0.000000
    8  N  1  Y    0.000000   0.010522   0.210628  -0.000000  -0.000000
    9  N  1  Z   -0.004381   0.000000   0.000000   0.381592  -0.106092
   10  N  1 XX   -0.000457   0.010719  -0.000535  -0.012387   0.006153
   11  N  1 YY   -0.000457  -0.010719   0.000535  -0.012387   0.006153
   12  N  1 ZZ    0.000914  -0.000000   0.000000   0.024773  -0.012306
   13  N  1 XY    0.000000  -0.000618  -0.012377  -0.000000   0.000000
   14  N  1 XZ   -0.000000   0.026529  -0.001325  -0.000000   0.000000
   15  N  1 YZ    0.000000   0.001325   0.026529  -0.000000   0.000000
   16  H  2  S    0.194462  -0.176074   0.343485   0.112865  -0.523343
   17  H  2  S    0.003574  -0.023812   0.046452   0.024014  -0.054445
   18  H  2  X    0.018760   0.009101   0.022834   0.009336  -0.039151
   19  H  2  Y   -0.032493   0.022287  -0.020044  -0.016171   0.067811
   20  H  2  Z   -0.009251   0.008464  -0.016511   0.018769  -0.010566
   21  H  3  S    0.194462  -0.209430  -0.324227   0.112865  -0.523343
   22  H  3  S    0.003574  -0.028322  -0.043847   0.024014  -0.054445
   23  H  3  X    0.018760   0.006781  -0.023627   0.009336  -0.039151
   24  H  3  Y    0.032493  -0.024174  -0.017723   0.016171  -0.067811
   25  H  3  Z   -0.009251   0.010067   0.015585   0.018769  -0.010566
   26  H  4  S    0.194462   0.385503  -0.019258   0.112865  -0.523343
   27  H  4  S    0.003574   0.052134  -0.002604   0.024014  -0.054445
   28  H  4  X   -0.037519  -0.032295   0.001613  -0.018672   0.078302
   29  H  4  Y    0.000000   0.001067   0.021353  -0.000000   0.000000
   30  H  4  Z   -0.009251  -0.018530   0.000926   0.018769  -0.010566

                      6          7

    1  N  1  S    0.000000  -0.000000
    2  N  1  S    0.000000  -0.000000
    3  N  1  S   -0.000000   0.000000
    4  N  1  X   -0.930415  -0.002083
    5  N  1  Y   -0.002083   0.930415
    6  N  1  Z   -0.000000   0.000000
    7  N  1  X   -0.046866  -0.000105
    8  N  1  Y   -0.000105   0.046866
    9  N  1  Z   -0.000000   0.000000
   10  N  1 XX    0.001538   0.000003
   11  N  1 YY   -0.001538  -0.000003
   12  N  1 ZZ   -0.000000   0.000000
   13  N  1 XY   -0.000004   0.001776
   14  N  1 XZ    0.039985   0.000090
   15  N  1 YZ    0.000090  -0.039985
   16  H  2  S   -0.362630  -0.631354
   17  H  2  S   -0.065964  -0.114846
   18  H  2  X    0.002763  -0.037520
   19  H  2  Y    0.037435   0.040736
   20  H  2  Z    0.001882   0.003276
   21  H  3  S   -0.365454   0.629724
   22  H  3  S   -0.066477   0.114549
   23  H  3  X    0.002595   0.037532
   24  H  3  Y   -0.037617   0.040567
   25  H  3  Z    0.001896  -0.003268
   26  H  4  S    0.728084   0.001630
   27  H  4  S    0.132441   0.000297
   28  H  4  X   -0.062317  -0.000140
   29  H  4  Y    0.000055  -0.024345
   30  H  4  Z   -0.003778  -0.000008

NUMBER OF SUB ACTIVE SPACES:   1
ROTATE ACTIVE MOS TO DMOS IN EACH SUB-SPACE

SPACE  1:

OVERLAP BETWEEN ORTHONORMAL AND PRE-ORTHONORMAL REF. DMOS

             1           2           3           4           5

    1    0.9762247  -0.0209868  -0.0333317  -0.0077118   0.0073950
    2   -0.0209868   0.9867560  -0.0575846  -0.0231050   0.0304559
    3   -0.0333317  -0.0575846   0.9477162  -0.0393331   0.0571924
    4   -0.0077118  -0.0231050  -0.0393331   0.9955252  -0.0111502
    5    0.0073950   0.0304559   0.0571924  -0.0111502   1.1122959
    6   -0.0004438   0.0099592  -0.0437377  -0.0186187  -0.0303077
    7    0.0000418   0.0475726   0.0246608   0.0394387   0.0377279

             6           7

    1   -0.0004438   0.0000418
    2    0.0099592   0.0475726
    3   -0.0437377   0.0246608
    4   -0.0186187   0.0394387
    5   -0.0303077   0.0377279
    6    1.0475255  -0.0196597
    7   -0.0196597   1.0693083
REFERENCE DMOS AFTER ORTHONORMALIZATION:

                      1          2          3          4          5

    1  N  1  S    0.006111  -0.008519  -0.015499  -0.010788   0.252590
    2  N  1  S    0.444685  -0.020175  -0.038504  -0.173890   0.779154
    3  N  1  S    0.279973  -0.005529  -0.010205  -0.286861   0.125346
    4  N  1  X    0.009656   0.509948  -0.033088  -0.005015  -0.035478
    5  N  1  Y    0.017791   0.014271   0.503726  -0.013727  -0.054843
    6  N  1  Z    0.092005  -0.002305  -0.008065   0.605903   0.642311
    7  N  1  X    0.004714   0.214899   0.000822   0.004515  -0.006840
    8  N  1  Y    0.008316   0.022606   0.224491   0.007985  -0.013166
    9  N  1  Z    0.000327   0.013721   0.022900   0.384059  -0.092551
   10  N  1 XX   -0.000404   0.010363  -0.000705  -0.012145   0.005205
   11  N  1 YY   -0.000897  -0.011445  -0.001123  -0.012753   0.005715
   12  N  1 ZZ    0.001301   0.001082   0.001828   0.024898  -0.010921
   13  N  1 XY   -0.000498  -0.001542  -0.013313  -0.000648   0.000641
   14  N  1 XZ    0.000671   0.026687   0.002061   0.001440   0.000227
   15  N  1 YZ    0.001141   0.005009   0.029499   0.002819  -0.000315
   16  H  2  S    0.215202  -0.100650   0.397679   0.139870  -0.477781
   17  H  2  S    0.005749  -0.012890   0.052467   0.028500  -0.049097
   18  H  2  X    0.020901   0.014465   0.029402   0.012086  -0.035857
   19  H  2  Y   -0.034386   0.015926  -0.025096  -0.017225   0.061617
   20  H  2  Z   -0.009642   0.007988  -0.016014   0.018147  -0.008710
   21  H  3  S    0.185952  -0.238715  -0.351577   0.058869  -0.477296
   22  H  3  S    0.001672  -0.034334  -0.050429   0.015221  -0.050754
   23  H  3  X    0.018892   0.005456  -0.022395   0.006951  -0.035452
   24  H  3  Y    0.032711  -0.024205  -0.017548   0.012249  -0.061881
   25  H  3  Z   -0.008346   0.012077   0.018559   0.019905  -0.010316
   26  H  4  S    0.215576   0.410197   0.077388   0.134947  -0.467364
   27  H  4  S    0.005825   0.054387   0.010542   0.027640  -0.047341
   28  H  4  X   -0.040262  -0.036166  -0.009657  -0.020540   0.070404
   29  H  4  Y    0.000903   0.003662   0.023535   0.001959  -0.000483
   30  H  4  Z   -0.009636  -0.018229   0.000659   0.018205  -0.008891

                      6          7

    1  N  1  S    0.006409  -0.007660
    2  N  1  S    0.017869  -0.018980
    3  N  1  S   -0.001603   0.006599
    4  N  1  X   -0.896274  -0.038915
    5  N  1  Y    0.033242   0.860909
    6  N  1  Z    0.028248  -0.044205
    7  N  1  X   -0.047060  -0.010468
    8  N  1  Y    0.009536   0.037990
    9  N  1  Z    0.004750  -0.011951
   10  N  1 XX    0.001272  -0.000154
   11  N  1 YY   -0.001453   0.000774
   12  N  1 ZZ    0.000182  -0.000620
   13  N  1 XY   -0.000500   0.002028
   14  N  1 XZ    0.038026  -0.000513
   15  N  1 YZ    0.000591  -0.038379
   16  H  2  S   -0.350933  -0.589888
   17  H  2  S   -0.063606  -0.108527
   18  H  2  X    0.002247  -0.035549
   19  H  2  Y    0.036695   0.037103
   20  H  2  Z    0.001170   0.002738
   21  H  3  S   -0.362414   0.615635
   22  H  3  S   -0.064376   0.109861
   23  H  3  X    0.001279   0.036390
   24  H  3  Y   -0.037212   0.040466
   25  H  3  Z    0.002441  -0.004346
   26  H  4  S    0.683455   0.005560
   27  H  4  S    0.125490   0.000572
   28  H  4  X   -0.057915  -0.001088
   29  H  4  Y    0.000580  -0.023517
   30  H  4  Z   -0.003337   0.000369

 -------------------------------------------
       MAXIMIZING MORMO OVERLAP TERM        
 -------------------------------------------
   SWEEP    VALUE       PROGRESS
     0     4.74232
     1     6.88921     2.14688554
     2     6.95711     0.06790211
     3     6.95713     0.00002520
     4     6.95713     0.00000000
     5     6.95713     0.00000000
     6     6.95713     0.00000000
 THE ROTATION IS DONE
ACTIVE ORBITALS AFTER MORMO:

                      1          2          3          4          5

    1  N  1  S    0.004651  -0.015037  -0.025329  -0.012396   0.208636
    2  N  1  S    0.422534  -0.038541  -0.062738  -0.189382   0.727605
    3  N  1  S    0.329318   0.042824   0.062419  -0.271037   0.181314
    4  N  1  X   -0.001610   0.487647  -0.051769  -0.019951  -0.019138
    5  N  1  Y   -0.000420  -0.006326   0.465300  -0.038624  -0.025516
    6  N  1  Z    0.081428  -0.017185  -0.032856   0.602937   0.645612
    7  N  1  X    0.016834   0.225650   0.036754   0.029222  -0.027699
    8  N  1  Y    0.027257   0.060080   0.263439   0.055216  -0.053411
    9  N  1  Z    0.025049   0.040844   0.068683   0.384433  -0.094328
   10  N  1 XX    0.002128   0.008522   0.011066  -0.008717  -0.017850
   11  N  1 YY   -0.002404  -0.008433  -0.011070  -0.013946   0.016089
   12  N  1 ZZ    0.000276  -0.000089   0.000004   0.022664   0.001761
   13  N  1 XY   -0.005553  -0.015001  -0.024087  -0.004452   0.039587
   14  N  1 XZ   -0.000175   0.018207   0.000772  -0.001735   0.023398
   15  N  1 YZ   -0.001276   0.002904   0.018992  -0.002139   0.044497
   16  H  2  S    0.190164  -0.143812   0.348482   0.117132  -0.453228
   17  H  2  S    0.007073  -0.001641   0.078644   0.035570  -0.066632
   18  H  2  X    0.026953  -0.007594   0.037558   0.012208  -0.042432
   19  H  2  Y   -0.020204   0.025946  -0.006312  -0.007344   0.036386
   20  H  2  Z   -0.004052   0.008212  -0.007140   0.020071  -0.018530
   21  H  3  S    0.184514  -0.222528  -0.335154   0.083646  -0.495413
   22  H  3  S   -0.001392  -0.064897  -0.090699   0.016464  -0.064104
   23  H  3  X    0.015129   0.011703  -0.018427   0.010079  -0.030164
   24  H  3  Y    0.028178  -0.019593  -0.009167   0.017781  -0.049249
   25  H  3  Z   -0.015055   0.016653   0.026298   0.017090  -0.007644
   26  H  4  S    0.190011   0.376610   0.013052   0.114627  -0.442983
   27  H  4  S    0.007752   0.080040   0.034213   0.035393  -0.065611
   28  H  4  X   -0.029881  -0.031633   0.013816  -0.012330   0.051784
   29  H  4  Y    0.014098   0.025441   0.017345   0.007321  -0.017781
   30  H  4  Z   -0.004384  -0.010465   0.005478   0.019695  -0.019741

                      6          7

    1  N  1  S   -0.010218   0.030103
    2  N  1  S   -0.029736   0.077337
    3  N  1  S    0.059022  -0.118972
    4  N  1  X   -0.893870  -0.037103
    5  N  1  Y    0.032693   0.853808
    6  N  1  Z    0.053970  -0.086943
    7  N  1  X   -0.059183  -0.017999
    8  N  1  Y    0.015223   0.053030
    9  N  1  Z   -0.019850   0.024319
   10  N  1 XX   -0.021361  -0.046270
   11  N  1 YY    0.023801   0.039381
   12  N  1 ZZ   -0.002440   0.006889
   13  N  1 XY   -0.048722   0.027625
   14  N  1 XZ    0.047406   0.015973
   15  N  1 YZ   -0.013970  -0.031559
   16  H  2  S   -0.356169  -0.544703
   17  H  2  S   -0.079751  -0.137140
   18  H  2  X   -0.019390  -0.045640
   19  H  2  Y    0.039048   0.021169
   20  H  2  Z   -0.024755   0.000232
   21  H  3  S   -0.341673   0.591960
   22  H  3  S   -0.097838   0.158767
   23  H  3  X    0.029584   0.040351
   24  H  3  Y   -0.039418   0.015910
   25  H  3  Z    0.008382  -0.011945
   26  H  4  S    0.644685   0.039024
   27  H  4  S    0.165057  -0.001397
   28  H  4  X   -0.055402  -0.018319
   29  H  4  Y    0.025542  -0.019478
   30  H  4  Z    0.010077   0.022571

Actually Used Diabatic Molecualr Orbitals:

                      1          2          3          4          5

    1  N  1  S    0.004651  -0.015037  -0.025329  -0.012396   0.208636
    2  N  1  S    0.422534  -0.038541  -0.062738  -0.189382   0.727605
    3  N  1  S    0.329318   0.042824   0.062419  -0.271037   0.181314
    4  N  1  X   -0.001610   0.487647  -0.051769  -0.019951  -0.019138
    5  N  1  Y   -0.000420  -0.006326   0.465300  -0.038624  -0.025516
    6  N  1  Z    0.081428  -0.017185  -0.032856   0.602937   0.645612
    7  N  1  X    0.016834   0.225650   0.036754   0.029222  -0.027699
    8  N  1  Y    0.027257   0.060080   0.263439   0.055216  -0.053411
    9  N  1  Z    0.025049   0.040844   0.068683   0.384433  -0.094328
   10  N  1 XX    0.002128   0.008522   0.011066  -0.008717  -0.017850
[...]
      248   -0.024792    0.024792  2+02200
      285    0.024602   -0.024602  02+2200
      108   -0.024257   -0.024257  +2-2+00
      107    0.023493   -0.023493  +22-+00
      458   -0.023025    0.023025  2+02+-0
      123    0.022653   -0.022653  +-2200+
       54   -0.022313    0.022313  -2+200+
      751   -0.021719    0.021719  2+20002
       18   -0.021679    0.021679  2-2+00+
      460   -0.020914   -0.020914  -++2+-0
      753    0.020891    0.020891  202+002
      142    0.020712    0.020712  22+0200

 ---------------------------------------
    -DIABATIC STATES IN PROTOTYPES-     
 ---------------------------------------

     STATE:    1
 Group Ref#    Coefficients
     1    1    0.959829
     2    2   -0.003566
     3    3   -0.005164

WEIGHT OF LISTED PROTOTYPES:   92.13%

     STATE:    2
 Group Ref#    Coefficients
     1    1   -0.003566
     2    2    0.951317
     3    3    0.004053

WEIGHT OF LISTED PROTOTYPES:   90.50%

     STATE:    3
 Group Ref#    Coefficients
     1    1   -0.005164
     2    2    0.004053
     3    3    0.955807

WEIGHT OF LISTED PROTOTYPES:   91.36%

 --------------------------------------------------
 IN DIRECT MAX. DIABATIZATION FOR GMC-QDPT

 DIRECT MAXIMIZATION (DM) WITHOUT TRUNCATING ADIABATS
 EXPANSIONS INTO THE REFERENCE CONFIGURATION SPACE
 --------------------------------------------------

 -------------------------------------------
 - DM DIABT PT HAMILTONIAN MATRIX ELEMENTS -
 -------------------------------------------
                                            
 --- DIABATIC ENERGIES (DIAGONAL ELEMENT) ---       HARTREE            EV
 STATE #  1'S GMC-PT-LEVEL DIABATIC ENERGY=     -55.941888128       0.000000000
 STATE #  2'S GMC-PT-LEVEL DIABATIC ENERGY=     -55.746173428       5.325668245
 STATE #  3'S GMC-PT-LEVEL DIABATIC ENERGY=     -55.803163760       3.774882323

 --- DIABATIC COUPLINGS (OFF DIAGONAL ELEMENTS)---  HATREE            EV
 STATE #  1 &  2'S GMC-PT-LEVEL COUPLING  =       0.022229340       0.604891148
 STATE #  1 &  3'S GMC-PT-LEVEL COUPLING  =       0.044444432       1.209394602
 STATE #  2 &  3'S GMC-PT-LEVEL COUPLING  =      -0.063947191      -1.740091685

 ---------------------------------------
     - ROTATION TO DIABATIC STATES -    
 ---------------------------------------
 ROWS=ADIABATIC, COLUMNS=DIABATIC STATES

             1           2           3

    1    0.9222925  -0.1935141  -0.3345576
    2    0.3856671   0.5173424   0.7639488
    3   -0.0252460   0.8336121  -0.5517731

 ---------------------------------------
          - DIABATIC STATES -           
 ---------------------------------------

 State #    1  Energy =     -55.941888128

      Det      Coef        Coefp    Occupancy (Ignoring core)
      ---      ----        ----    --------- --------- -----
        1    0.939507   -0.939507  222+000
       17    0.105491    0.105491  22-+00+
        3    0.104954    0.104954  22-++00
      141   -0.100737   -0.100737  22++-00
       16    0.081681   -0.081681  222000+
      717   -0.075156   -0.075156  220+002
      701   -0.074807   -0.074807  22++00-
       18    0.073724   -0.073724  2-2+00+
      393   -0.071491   -0.071491  202+020
      736   -0.070221    0.070221  2+2+00-
        7   -0.061520   -0.061520  22-+0+0
      351    0.060890    0.060890  22++0-0
        4    0.060394   -0.060394  2-2++00
      176   -0.057714    0.057714  2+2+-00
        8   -0.052027    0.052027  2-2+0+0
        6   -0.043005    0.043005  22200+0
      402    0.038931   -0.038931  2+-+0-+
      708    0.037365   -0.037365  2-++0+-
      215   -0.036767   -0.036767  022+200
      390    0.034422   -0.034422  -+2++-0
        5    0.034063    0.034063  -22++00
      218    0.033958   -0.033958  +-2+-+0
      705   -0.032536   -0.032536  -2+++0-
      227   -0.032164   -0.032164  +2-+-0+
       51   -0.030684    0.030684  22+-00+
      212    0.029793    0.029793  +220200
       76    0.029742    0.029742  2+2-0+0
        2    0.028101   -0.028101  2220+00
      122    0.027296    0.027296  +2-200+
      179   -0.025833   -0.025833  202+200
      773    0.025004   -0.025004  +2-++0-
     1051   -0.024655   -0.024655  2+++0--
      113   -0.024231    0.024231  +-220+0
      702    0.024165    0.024165  22+0+0-
      387   -0.023754    0.023754  2+20+-0
      424   -0.023074   -0.023074  +-2++-0
      159    0.022585   -0.022585  -2++-0+
      386    0.022285   -0.022285  2+2+0-0
      184   -0.022175   -0.022175  -+2+-+0
       29   -0.021236   -0.021236  2--+0++
       20   -0.021173   -0.021173  22-0+0+

 State #    2  Energy =     -55.746173428

      Det      Coef        Coefp    Occupancy (Ignoring core)
      ---      ----        ----    --------- --------- -----
       71   -0.938896    0.938896  2+22000
      246   -0.116970   -0.116970  2++2-00
       73    0.114082   -0.114082  2+-2+00
      736   -0.096925    0.096925  2+2+00-
       86    0.093177    0.093177  2+2-00+
      822    0.078354   -0.078354  2+02002
       77   -0.077166    0.077166  2+-20+0
      806   -0.075301   -0.075301  2++200-
      456    0.070172    0.070172  2++20-0
       87    0.062439   -0.062439  2+-200+
       88   -0.058085    0.058085  202200+
       36    0.044967    0.044967  22+2000
      813    0.044786   -0.044786  20+20+-
      106   -0.043385   -0.043385  +222000
      386    0.040018   -0.040018  2+2+0-0
      320    0.037245    0.037245  0+22200
      111    0.035277   -0.035277  +22-0+0
      810   -0.034843   -0.034843  -++2+0-
      332   -0.034836    0.034836  ++-2-0+
      122    0.034116    0.034116  +2-200+
      316    0.033104    0.033104  ++22-00
      323   -0.032826    0.032826  +022-+0
       99   -0.032645    0.032645  20-20++
       74   -0.032384    0.032384  2022+00
      317    0.031580   -0.031580  ++2-200
      180   -0.031378    0.031378  -+2+200
      177    0.031046   -0.031046  2+20200
       76   -0.030452   -0.030452  2+2-0+0
       90    0.028517    0.028517  2+--+0+
      807   -0.028371    0.028371  2++-+0-
        6    0.028364   -0.028364  22200+0
      192   -0.027527    0.027527  2+-+-0+
      183   -0.026011    0.026011  202+-+0
      911    0.025515    0.025515  2+++-0-
      878    0.025348    0.025348  ++-2+0-
      108    0.025246    0.025246  +2-2+00
      264    0.025154   -0.025154  -++2-0+
       38   -0.023177    0.023177  2202+00
      391    0.023053   -0.023053  2+20020

 State #    3  Energy =     -55.803163760

      Det      Coef        Coefp    Occupancy (Ignoring core)
      ---      ----        ----    --------- --------- -----
       36   -0.938361   -0.938361  22+2000
       38   -0.104329    0.104329  2202+00
       51    0.095911   -0.095911  22+-00+
       39   -0.093972   -0.093972  2-+2+00
      701   -0.093335   -0.093335  22++00-
       53   -0.089526   -0.089526  2-+200+
      106   -0.079355   -0.079355  +222000
      806    0.075186    0.075186  2++200-
      463    0.071137   -0.071137  20+2020
       41   -0.068536    0.068536  22+-0+0
      351    0.059814    0.059814  22++0-0
      246    0.059421    0.059421  2++2-00
       42    0.054078   -0.054078  22020+0
       52   -0.051569    0.051569  220200+
       71   -0.045154    0.045154  2+22000
      472   -0.043697   -0.043697  2+020-+
      123    0.039063   -0.039063  +-2200+
      285    0.036296   -0.036296  02+2200
      288   -0.036083   -0.036083  +-+2-+0
      460   -0.035830   -0.035830  -++2+-0
       73    0.034552   -0.034552  2+-2+00
      297    0.033948   -0.033948  +202-0+
       64    0.032563   -0.032563  2-020++
      145   -0.031895   -0.031895  -2++200
      282    0.031529    0.031529  +2+-200
      142    0.030827    0.030827  22+0200
       55   -0.029465   -0.029465  220-+0+
      157    0.028696   -0.028696  220+-0+
       40   -0.028306    0.028306  -2+2+00
      249    0.027225   -0.027225  20+2200
       86    0.027162    0.027162  2+2-00+
      121   -0.025814    0.025814  +22-00+
      457   -0.025646    0.025646  2++-+-0
      109    0.025328   -0.025328  +-22+00
       16   -0.024854    0.024854  222000+
      148   -0.024850   -0.024850  2-++-+0
      494    0.024138   -0.024138  +-+2+-0
      876   -0.022691   -0.022691  ++2200-
      254    0.022123   -0.022123  -++2-+0
      718    0.021157   -0.021157  2-++002
      843   -0.020737   -0.020737  +202+0-
      859    0.020695   -0.020695  02+2002
      112   -0.020039   -0.020039  +2-20+0

 ---------------------------------------
      - DIABATIC STATES IN CMO -        
 ---------------------------------------

 State #    1  Energy =     -55.941888128

      Det      Coef        Coefp    Occupancy (Ignoring core)
      ---      ----        ----    --------- --------- -----
        1    0.870610   -0.870610  222+000
       36   -0.439004   -0.439004  22+2000
      717   -0.059965   -0.059965  220+002
      393   -0.055554   -0.055554  202+020
      143   -0.045862   -0.045862  220+200
      753   -0.042153   -0.042153  202+002
      708    0.041645   -0.041645  2-++0+-
        8   -0.040678    0.040678  2-2+0+0
      703    0.038372    0.038372  220++0-
      716    0.038096    0.038096  22+0002
        3   -0.036617   -0.036617  22-++00
      106   -0.031354   -0.031354  +222000
       16    0.030989   -0.030989  222000+
      157   -0.029014    0.029014  220+-0+
      463    0.028732   -0.028732  20+2020
      215   -0.028154   -0.028154  022+200
      719   -0.027954   -0.027954  -2++002
       71    0.027565   -0.027565  2+22000
      402    0.026552   -0.026552  2+-+0-+
      213   -0.025844    0.025844  +2-+200
      401    0.025521    0.025521  2+200-+
      368   -0.024692   -0.024692  2-++0-+
       76    0.024309    0.024309  2+2-0+0
      778   -0.024300   -0.024300  +-2+0+-
      108   -0.023722   -0.023722  +2-2+00
      122    0.023674    0.023674  +2-200+
      741   -0.023004    0.023004  2+200+-
      145    0.022856    0.022856  -2++200
      404   -0.022490   -0.022490  -+2+0-+
      113   -0.022472    0.022472  +-220+0
       37    0.022286   -0.022286  22+-+00
       43    0.022174    0.022174  2-+20+0
      823    0.021936   -0.021936  20+2002
      786    0.021277    0.021277  +220002

 State #    2  Energy =     -55.746173428

      Det      Coef        Coefp    Occupancy (Ignoring core)
      ---      ----        ----    --------- --------- -----
       71   -0.810998    0.810998  2+22000
       36   -0.498978   -0.498978  22+2000
        1   -0.226006    0.226006  222+000
      248    0.051887   -0.051887  2+02200
      822    0.047565   -0.047565  2+02002
      123   -0.044332    0.044332  +-2200+
      262    0.039400    0.039400  2+02-0+
       18    0.037141   -0.037141  2-2+00+
      111    0.034934   -0.034934  +22-0+0
       86   -0.033708   -0.033708  2+2-00+
      808   -0.032583    0.032583  2+02+0-
      751    0.032446   -0.032446  2+20002
      250    0.027948    0.027948  -++2200
      813    0.026015   -0.026015  20+20+-
      463    0.025757   -0.025757  20+2020
      743    0.025560    0.025560  202+0+-
      320    0.025254    0.025254  0+22200
      823    0.025016   -0.025016  20+2002
      253    0.024541    0.024541  20+2-+0
      318   -0.024137   -0.024137  ++-2200
       89    0.024003    0.024003  -+2200+
       53    0.023618    0.023618  2-+200+
       41    0.023446   -0.023446  22+-0+0
      752    0.020644    0.020644  2+-+002
      894    0.020509    0.020509  0+22002
      876    0.020329    0.020329  ++2200-
      122    0.020318    0.020318  +2-200+
      421   -0.020122   -0.020122  +22+0-0
      821   -0.020053    0.020053  2++-002
      754   -0.020044    0.020044  -+2+002

 State #    3  Energy =     -55.803163760

      Det      Coef        Coefp    Occupancy (Ignoring core)
      ---      ----        ----    --------- --------- -----
       36   -0.719883   -0.719883  22+2000
       71    0.544964   -0.544964  2+22000
        1   -0.380463    0.380463  222+000
      463    0.050473   -0.050473  20+2020
      122    0.042236    0.042236  +2-200+
      823    0.039435   -0.039435  20+2002
      822   -0.034029    0.034029  2+02002
       16   -0.031541    0.031541  222000+
       88    0.028749   -0.028749  202200+
      472   -0.028605   -0.028605  2+020-+
      143    0.028530    0.028530  220+200
      471    0.025397    0.025397  2++-0-+
      157    0.025131   -0.025131  220+-0+
      248   -0.024793    0.024793  2+02200
      285    0.024601   -0.024601  02+2200
      108   -0.024257   -0.024257  +2-2+00
      107    0.023494   -0.023494  +22-+00
      458   -0.023025    0.023025  2+02+-0
      123    0.022653   -0.022653  +-2200+
       54   -0.022312    0.022312  -2+200+
      751   -0.021719    0.021719  2+20002
       18   -0.021679    0.021679  2-2+00+
      460   -0.020914   -0.020914  -++2+-0
      753    0.020891    0.020891  202+002
      142    0.020711    0.020711  22+0200

 ---------------------------------------
    -DIABATIC STATES IN PROTOTYPES-     
 ---------------------------------------

     STATE:    1
 Group Ref#    Coefficients
     1    1    0.959829
     2    2   -0.003551
     3    3   -0.005153

WEIGHT OF LISTED PROTOTYPES:   92.13%

     STATE:    2
 Group Ref#    Coefficients
     1    1   -0.003582
     2    2    0.951317
     3    3    0.004062

WEIGHT OF LISTED PROTOTYPES:   90.50%

     STATE:    3
 Group Ref#    Coefficients
     1    1   -0.005175
     2    2    0.004043
     3    3    0.955807

WEIGHT OF LISTED PROTOTYPES:   91.36%

     DIRECT MAX. DIABATIZATION FINISHED    
 CPU     0: STEP CPU TIME=     0.25 TOTAL CPU TIME=         14.9 (      0.2 MIN)
 TOTAL WALL CLOCK TIME=         14.9 SECONDS, CPU UTILIZATION IS    99.93%

DIABATS FOR SPIN-ORBIT CALCULATION ARE READY

TRANSITION DIPOLES BETWEEN ADIABATS (in A.U.):

STATE PAIR      X         Y         Z
    1    1 -0.138850 -0.283254  0.677350
    2    1  0.007903  0.001760  0.183563
    2    2 -0.179310 -0.271498  0.334208
    3    1  0.115932 -0.073187 -0.012654
    3    2 -0.232620  0.119235  0.000700
    3    3 -0.201183 -0.476261  0.302045


TRANSITION DIPOLES BETWEEN DIABATS (in A.U.):

STATE PAIR      X         Y         Z
    1    1 -0.140155 -0.279290  0.757233
    2    1  0.014377 -0.012735  0.003753
    2    2 -0.432619 -0.288130  0.292640
    3    1 -0.012271  0.010741  0.005499
    3    2 -0.091553  0.147353 -0.019475
    3    3  0.053430 -0.463593  0.263730

TRANSITION DIPOLES BETWEEN DIRECT MAX. DIABATS (in A.U.):

STATE PAIR      X         Y         Z
    1    1 -0.140155 -0.279291  0.757233
    2    1  0.014371 -0.012734  0.003745
    2    2 -0.432621 -0.288126  0.292640
    3    1 -0.012270  0.010741  0.005493
    3    2 -0.091548  0.147351 -0.019475
    3    3  0.053432 -0.463596  0.263730
 No $TRANST Group Found.
 Quit without doing spin-orbit coupling
 ..... DONE WITH MP2 ENERGY .....
 CPU     0: STEP CPU TIME=     0.00 TOTAL CPU TIME=         14.9 (      0.2 MIN)
 TOTAL WALL CLOCK TIME=         14.9 SECONDS, CPU UTILIZATION IS    99.87%
            100000000  WORDS OF DYNAMIC MEMORY USED
 EXECUTION OF GAMESS TERMINATED NORMALLY Wed Nov 16 18:35:58 2022
 DDI: 715512 bytes (0.7 MB / 0 MWords) used by master data server.

 ----------------------------------------
 CPU timing information for all processes
 ========================================
 0: 14.529 + 0.332 = 14.861
 ----------------------------------------
Note: The following floating-point exceptions are signalling: IEEE_DENORMAL
 ddikick.x: exited gracefully.
unset echo
----- accounting info -----
Files used on the master node io002 were:
-rw-r--r-- 1 bsonghao nooijen   20719 Nov 16 18:35 /scratch/bsonghao/nh3_diabatization_2d_at_mode_7_8_dist-0.6_-0.3.F05
-rw-r--r-- 1 bsonghao nooijen  363520 Nov 16 18:35 /scratch/bsonghao/nh3_diabatization_2d_at_mode_7_8_dist-0.6_-0.3.F09
-rw-r--r-- 1 bsonghao nooijen 1995920 Nov 16 18:36 /scratch/bsonghao/nh3_diabatization_2d_at_mode_7_8_dist-0.6_-0.3.F10
-rw-r--r-- 1 bsonghao nooijen  131264 Nov 16 18:35 /scratch/bsonghao/nh3_diabatization_2d_at_mode_7_8_dist-0.6_-0.3.F13
-rw-r--r-- 1 bsonghao nooijen  180312 Nov 16 18:36 /scratch/bsonghao/nh3_diabatization_2d_at_mode_7_8_dist-0.6_-0.3.F15
-rw-r--r-- 1 bsonghao nooijen       0 Nov 16 18:35 /scratch/bsonghao/nh3_diabatization_2d_at_mode_7_8_dist-0.6_-0.3.F16
-rw-r--r-- 1 bsonghao nooijen    9808 Nov 16 18:35 /scratch/bsonghao/nh3_diabatization_2d_at_mode_7_8_dist-0.6_-0.3.F70
-rw-r--r-- 1 bsonghao nooijen    9808 Nov 16 18:35 /scratch/bsonghao/nh3_diabatization_2d_at_mode_7_8_dist-0.6_-0.3.F71
-rw-r--r-- 1 bsonghao nooijen   19608 Nov 16 18:35 /scratch/bsonghao/nh3_diabatization_2d_at_mode_7_8_dist-0.6_-0.3.F72
-rw-r--r-- 1 bsonghao nooijen   19608 Nov 16 18:35 /scratch/bsonghao/nh3_diabatization_2d_at_mode_7_8_dist-0.6_-0.3.F73
-rw-r--r-- 1 bsonghao nooijen 1920824 Nov 16 18:35 /scratch/bsonghao/nh3_diabatization_2d_at_mode_7_8_dist-0.6_-0.3.F74
-rw-r--r-- 1 bsonghao nooijen       0 Nov 16 18:35 /scratch/bsonghao/nh3_diabatization_2d_at_mode_7_8_dist-0.6_-0.3.F75
-rw-r--r-- 1 bsonghao nooijen   58848 Nov 16 18:35 /scratch/bsonghao/nh3_diabatization_2d_at_mode_7_8_dist-0.6_-0.3.F76
-rw-r--r-- 1 bsonghao nooijen       0 Nov 16 18:35 /scratch/bsonghao/nh3_diabatization_2d_at_mode_7_8_dist-0.6_-0.3.F77
-rw-r--r-- 1 bsonghao nooijen    1864 Nov 16 18:35 /scratch/bsonghao/nh3_diabatization_2d_at_mode_7_8_dist-0.6_-0.3.F78
-rw-r--r-- 1 bsonghao nooijen   39208 Nov 16 18:35 /scratch/bsonghao/nh3_diabatization_2d_at_mode_7_8_dist-0.6_-0.3.F79
-rw-r--r-- 1 bsonghao nooijen     104 Nov 16 18:35 /scratch/bsonghao/nh3_diabatization_2d_at_mode_7_8_dist-0.6_-0.3.F80
-rw-r--r-- 1 bsonghao nooijen   13472 Nov 16 18:35 /scratch/bsonghao/nh3_diabatization_2d_at_mode_7_8_dist-0.6_-0.3.F81
-rw-r--r-- 1 bsonghao nooijen      16 Nov 16 18:35 /scratch/bsonghao/nh3_diabatization_2d_at_mode_7_8_dist-0.6_-0.3.F82
-rw-r--r-- 1 bsonghao nooijen   19216 Nov 16 18:35 /scratch/bsonghao/nh3_diabatization_2d_at_mode_7_8_dist-0.6_-0.3.F83
-rw-r--r-- 1 bsonghao nooijen   29712 Nov 16 18:35 /scratch/bsonghao/nh3_diabatization_2d_at_mode_7_8_dist-0.6_-0.3.F84
-rw-r--r-- 1 bsonghao nooijen  401576 Nov 16 18:35 /scratch/bsonghao/nh3_diabatization_2d_at_mode_7_8_dist-0.6_-0.3.F85
-rw-r--r-- 1 bsonghao nooijen  903672 Nov 16 18:35 /scratch/bsonghao/nh3_diabatization_2d_at_mode_7_8_dist-0.6_-0.3.F86
-rw-r--r-- 1 bsonghao nooijen     656 Nov 16 18:35 /scratch/bsonghao/nh3_diabatization_2d_at_mode_7_8_dist-0.6_-0.3.F87
-rw-r--r-- 1 bsonghao nooijen   34928 Nov 16 18:36 /scratch/bsonghao/nh3_diabatization_2d_at_mode_7_8_dist-0.6_-0.3.F88
-rw-r--r-- 1 bsonghao nooijen     240 Nov 16 18:35 /scratch/bsonghao/nh3_diabatization_2d_at_mode_7_8_dist-0.6_-0.3.F89
-rw-r--r-- 1 bsonghao nooijen       0 Nov 16 18:35 /scratch/bsonghao/nh3_diabatization_2d_at_mode_7_8_dist-0.6_-0.3.F90
-rw-r--r-- 1 bsonghao nooijen   13760 Nov 16 18:35 /scratch/bsonghao/nh3_diabatization_2d_at_mode_7_8_dist-0.6_-0.3.F91
-rw-r--r-- 1 bsonghao nooijen   22776 Nov 16 18:35 /scratch/bsonghao/nh3_diabatization_2d_at_mode_7_8_dist-0.6_-0.3.F92
-rw-r--r-- 1 bsonghao nooijen   23168 Nov 16 18:35 /scratch/bsonghao/nh3_diabatization_2d_at_mode_7_8_dist-0.6_-0.3.F93
-rw-r--r-- 1 bsonghao nooijen   22776 Nov 16 18:35 /scratch/bsonghao/nh3_diabatization_2d_at_mode_7_8_dist-0.6_-0.3.F94
-rw-r--r-- 1 bsonghao nooijen   13760 Nov 16 18:35 /scratch/bsonghao/nh3_diabatization_2d_at_mode_7_8_dist-0.6_-0.3.F95
-rw-r--r-- 1 bsonghao nooijen   29440 Nov 16 18:35 /scratch/bsonghao/nh3_diabatization_2d_at_mode_7_8_dist-0.6_-0.3.F96
-rw-r--r-- 1 bsonghao nooijen    1184 Nov 16 18:35 /scratch/bsonghao/nh3_diabatization_2d_at_mode_7_8_dist-0.6_-0.3.F97
-rw-r--r-- 1 bsonghao nooijen    9808 Nov 16 18:35 /scratch/bsonghao/nh3_diabatization_2d_at_mode_7_8_dist-0.6_-0.3.F98
-rw-r--r-- 1 bsonghao nooijen   30264 Nov 16 18:35 /scratch/bsonghao/nh3_diabatization_2d_at_mode_7_8_dist-0.6_-0.3.F99
ls: No match.
ls: No match.
ls: No match.
Wed 16 Nov 2022 06:36:01 PM EST
0.298u 0.034s 0:18.23 1.7%	0+0k 48+224io 0pf+0w
