----- GAMESS execution script 'rungms' -----
This job is running on host io002
under operating system Linux at Wed 16 Nov 2022 06:56:59 PM EST
Available scratch disk space (Kbyte units) at beginning of the job is
Filesystem       1K-blocks       Used   Available Use% Mounted on
/dev/sdc1      15378471580 3278917120 11318349060  23% /scratch
GAMESS temporary binary files will be written to /scratch/bsonghao
GAMESS supplementary output files will be written to /home/bsonghao/.gamess_ascii_files/267638
Copying input file nh3_diabatization_2d_at_mode_7_8_dist-0.3_-0.8.inp to your run's scratch directory...
cp nh3_diabatization_2d_at_mode_7_8_dist-0.3_-0.8.inp /scratch/bsonghao/nh3_diabatization_2d_at_mode_7_8_dist-0.3_-0.8.F05
unset echo
/home/bjb2chen/gamess/ddikick.x /home/bjb2chen/gamess/gamess.00.x nh3_diabatization_2d_at_mode_7_8_dist-0.3_-0.8 -ddi 1 1 io002 -scr /scratch/bsonghao

 Distributed Data Interface kickoff program.
 Initiating 1 compute processes on 1 nodes to run the following command:
 /home/bjb2chen/gamess/gamess.00.x nh3_diabatization_2d_at_mode_7_8_dist-0.3_-0.8 

          ******************************************************
          *         GAMESS VERSION = 02 AUG 2018 (R2)         *
          *             FROM IOWA STATE UNIVERSITY             *
          * M.W.SCHMIDT, K.K.BALDRIDGE, J.A.BOATZ, S.T.ELBERT, *
          *   M.S.GORDON, J.H.JENSEN, S.KOSEKI, N.MATSUNAGA,   *
          *          K.A.NGUYEN, S.J.SU, T.L.WINDUS,           *
          *       TOGETHER WITH M.DUPUIS, J.A.MONTGOMERY       *
          *         J.COMPUT.CHEM.  14, 1347-1363(1993)        *
          **************** 64 BIT LINUX VERSION ****************

  SINCE 1993, STUDENTS AND POSTDOCS WORKING AT IOWA STATE UNIVERSITY
  AND ALSO IN THEIR VARIOUS JOBS AFTER LEAVING ISU HAVE MADE IMPORTANT
  CONTRIBUTIONS TO THE CODE:
     IVANA ADAMOVIC, CHRISTINE AIKENS, YURI ALEXEEV, POOJA ARORA,
     ANDREY ASADCHEV, ROB BELL, PRADIPTA BANDYOPADHYAY, JONATHAN BENTZ,
     BRETT BODE, KURT BRORSEN, CALEB CARLIN, GALINA CHABAN, WEI CHEN,
     CHEOL HO CHOI, PAUL DAY, ALBERT DEFUSCO, NUWAN DESILVA, TIM DUDLEY,
     DMITRI FEDOROV, ALEX FINDLATER, GRAHAM FLETCHER, MARK FREITAG,
     KURT GLAESEMANN, ANASTASIA GUININA,
     DAN KEMP, GRANT MERRILL, NORIYUKI MINEZAWA, JONATHAN MULLIN,
     TAKESHI NAGATA, SEAN NEDD, HEATHER NETZLOFF, BOSILJKA NJEGIC, RYAN OLSON,
     MIKE PAK, BUU PHAM,
     SPENCER PRUITT, LUKE ROSKOP, JIM SHOEMAKER, LYUDMILA SLIPCHENKO,
     TONY SMITH, SAROM SOK LEANG, JIE SONG, TETSUYA TAKETSUGU, SIMON WEBB,
     PENG XU, SOOHAENG YOO, FEDERICO ZAHARIEV

  ADDITIONAL CODE HAS BEEN PROVIDED BY COLLABORATORS IN OTHER GROUPS:
     IOWA STATE UNIVERSITY:
          JOE IVANIC, AARON WEST, LAIMUTIS BYTAUTAS, KLAUS RUEDENBERG
     UNIVERSITY OF TOKYO: KIMIHIKO HIRAO, TAKAHITO NAKAJIMA,
          TAKAO TSUNEDA, MUNEAKI KAMIYA, SUSUMU YANAGISAWA,
          KIYOSHI YAGI, MAHITO CHIBA, SEIKEN TOKURA, NAOAKI KAWAKAMI
     UNIVERSITY OF AARHUS: FRANK JENSEN
     UNIVERSITY OF IOWA: VISVALDAS KAIRYS, HUI LI
     NATIONAL INST. OF STANDARDS AND TECHNOLOGY: WALT STEVENS, DAVID GARMER
     UNIVERSITY OF PISA: BENEDETTA MENNUCCI, JACOPO TOMASI
     UNIVERSITY OF MEMPHIS: HENRY KURTZ, PRAKASHAN KORAMBATH
     UNIVERSITY OF ALBERTA: TOBY ZENG, MARIUSZ KLOBUKOWSKI
     UNIVERSITY OF NEW ENGLAND: MARK SPACKMAN
     MIE UNIVERSITY: HIROAKI UMEDA
     NAT. INST. OF ADVANCED INDUSTRIAL SCIENCE AND TECHNOLOGY: KAZUO KITAURA
     MICHIGAN STATE UNIVERSITY:
          KAROL KOWALSKI, MARTA WLOCH, JEFFREY GOUR, JESSE LUTZ,
          WEI LI, JUN SHEN, J. EMILIANO DEUSTUA, PIOTR PIECUCH
     UNIVERSITY OF MINNESOTA:
          YINAN SHU
     UNIVERSITY OF SILESIA: MONIKA MUSIAL, STANISLAW KUCHARSKI
     FACULTES UNIVERSITAIRES NOTRE-DAME DE LA PAIX:
          OLIVIER QUINET, BENOIT CHAMPAGNE
     UNIVERSITY OF CALIFORNIA - SANTA BARBARA: BERNARD KIRTMAN
     INSTITUTE FOR MOLECULAR SCIENCE:
          KAZUYA ISHIMURA, MICHIO KATOUDA, AND SHIGERU NAGASE
     UNIVERSITY OF NOTRE DAME: ANNA POMOGAEVA, DAN CHIPMAN
     KYUSHU UNIVERSITY:
          HARUYUKI NAKANO,
          FENG LONG GU, JACEK KORCHOWIEC, MARCIN MAKOWSKI, AND YURIKO AOKI,
          HIROTOSHI MORI AND EISAKU MIYOSHI
     PENNSYLVANIA STATE UNIVERSITY:
          TZVETELIN IORDANOV, CHET SWALINA, JONATHAN SKONE,
          SHARON HAMMES-SCHIFFER
     WASEDA UNIVERSITY:
          MASATO KOBAYASHI, TOMOKO AKAMA, TSUGUKI TOUMA,
          TAKESHI YOSHIKAWA, YASUHIRO IKABATA, JUNJI SEINO,
          YUYA NAKAJIMA, HIROMI NAKAI
     NANJING UNIVERSITY: SHUHUA LI
     UNIVERSITY OF NEBRASKA:
          PEIFENG SU, DEJUN SI, NANDUN THELLAMUREGE, YALI WANG, HUI LI
     UNIVERSITY OF ZURICH: ROBERTO PEVERATI, KIM BALDRIDGE
     N. COPERNICUS UNIVERSITY AND JACKSON STATE UNIVERSITY:
          MARIA BARYSZ
     UNIVERSITY OF COPENHAGEN: Jimmy Kromann, CASPER STEINMANN
     TOKYO INSTITUTE OF TECHNOLOGY: HIROYA NAKATA
     NAGOYA UNIVERSITY: YOSHIO NISHIMOTO, STEPHAN IRLE
     MOSCOW STATE UNIVERSITY: VLADIMIR MIRONOV

 EXECUTION OF GAMESS BEGUN Wed Nov 16 18:57:00 2022

            ECHO OF THE FIRST FEW INPUT CARDS -
 INPUT CARD> $system kdiag=3 mwords=100 memddi=1000 parall=.t. $end                         
 INPUT CARD> $contrl runtyp=energy ispher=1 $end                                            
 INPUT CARD> $contrl icut=9 itol=20 inttyp=rysquad qmttol=1.0d-05 nosym=1 $end              
 INPUT CARD> $scf    npunch=2 conv=1.0d-06 dirscf=.t.      $end                             
 INPUT CARD> $contrl scftyp=mcscf  mult=2 maxit=200 icharg=1 mplevl=2 $end                  
 INPUT CARD> $guess  guess=moread norb=29 purify=.t. $end                                   
 INPUT CARD> $basis  gbasis=ccd $end                                                        
 INPUT CARD> $mcscf  cistep=gmcci fullnr=.t. finci=mos                                      
 INPUT CARD>         acurcy=1.d-6 maxit=100 $end                                            
 INPUT CARD> $trans  dirtrf=.t. $end                                                        
 INPUT CARD> $mrmp   mrpt=gmcpt rdvecs=.f. $end                                             
 INPUT CARD> $gmcpt  nmofzc=0 nmodoc=1 nmoact=7 nelact=7 stsym(1)=A                         
 INPUT CARD>         reftyp=ormas nspace=1 mstart(1)=2 mine(1)=7 maxe(1)=7                  
 INPUT CARD>         kstate(1)=1,1,1                                                        
 INPUT CARD>         wstate(1)=1,1,1                                                        
 INPUT CARD>         iwgt=0 thrwgt=-1.0 krot=.f. kszdoe=.f. knospn=.f.                      
 INPUT CARD>         thrde=-1.0 edshft=0.02 $end                                            
 INPUT CARD> $data                                                                          
 INPUT CARD> NH3+ 3 states calculation at NH3 structure.                                    
 INPUT CARD> c1                                                                             
 INPUT CARD>N 7.0 0.049831344 0.018686709000000003 -0.1693802522                            
 INPUT CARD>H 1.0 -0.987270861 0.47990304380000004 0.2934655101                             
 INPUT CARD>H 1.0 -0.757994894 -0.5206339618 0.4306299511                                   
 INPUT CARD>H 1.0 1.052845876 -0.21892724800000002 0.04527860710000001                      
 INPUT CARD>$end                                                                            
 INPUT CARD>--- OPTIMIZED RHF      MO-S --- GENERATED AT Mon Nov 14 16:47:08 2022           
 INPUT CARD>E=      -56.3825050291, E(NUC)=   11.8429239490                                 
 INPUT CARD> $VEC                                                                           
 INPUT CARD> 1  1-1.00134066E+00-2.25158504E-03 3.44925845E-03 0.00000000E+00 0.00000000E+00
 INPUT CARD> 1  2-2.13170927E-03 0.00000000E+00 0.00000000E+00 6.57129898E-04-6.87950443E-05
 INPUT CARD> 1  3-6.87950443E-05 1.37590089E-04 0.00000000E+00 0.00000000E+00 0.00000000E+00
 INPUT CARD> 1  4 3.25502815E-04-4.84772356E-04 3.62525460E-04-6.27912517E-04-3.45956485E-04
 INPUT CARD> 1  5 3.25502815E-04-4.84772356E-04 3.62525460E-04 6.27912517E-04-3.45956485E-04
 INPUT CARD> 1  6 3.25502815E-04-4.84772356E-04-7.25050921E-04 0.00000000E+00-3.45956485E-04
 INPUT CARD> 2  1 1.31286642E-02-4.05911371E-01-2.82090992E-01 0.00000000E+00 0.00000000E+00
 INPUT CARD> 2  2-7.71489043E-02 0.00000000E+00 0.00000000E+00 9.73717494E-03 6.62450916E-04
 INPUT CARD> 2  3 6.62450916E-04-1.32490183E-03 0.00000000E+00 0.00000000E+00 0.00000000E+00
 INPUT CARD> 2  4-1.96090317E-01-1.96656153E-02-1.74855877E-02 3.02859263E-02 8.68214399E-03
 INPUT CARD> 2  5-1.96090317E-01-1.96656153E-02-1.74855877E-02-3.02859263E-02 8.68214399E-03
 INPUT CARD> 2  6-1.96090317E-01-1.96656153E-02 3.49711754E-02 0.00000000E+00 8.68214399E-03
 INPUT CARD> 3  1 0.00000000E+00 0.00000000E+00 0.00000000E+00 4.48608762E-01 0.00000000E+00
 INPUT CARD> 3  2 0.00000000E+00 2.18692520E-01 0.00000000E+00 0.00000000E+00 1.30198027E-02
 INPUT CARD> 3  3-1.30198027E-02 0.00000000E+00 0.00000000E+00 2.71832968E-02 0.00000000E+00
 INPUT CARD> 3  4-1.85332726E-01-7.03958951E-02 8.47929477E-03 1.95242443E-02 8.32835058E-03
 INPUT CARD> 3  5-1.85332726E-01-7.03958951E-02 8.47929477E-03-1.95242443E-02 8.32835058E-03
 INPUT CARD> 3  6 3.70665453E-01 1.40791790E-01-2.53376884E-02 0.00000000E+00-1.66567012E-02
 INPUT CARD> 4  1 0.00000000E+00 0.00000000E+00 0.00000000E+00 0.00000000E+00 4.48608762E-01
 INPUT CARD> 4  2 0.00000000E+00 0.00000000E+00 2.18692520E-01 0.00000000E+00 0.00000000E+00
 INPUT CARD> 4  3 0.00000000E+00 0.00000000E+00-1.50339731E-02 0.00000000E+00 2.71832968E-02
 INPUT CARD> 4  4 3.21005698E-01 1.21929267E-01 1.95242443E-02-1.40653607E-02-1.44251263E-02
  100000000 WORDS OF MEMORY AVAILABLE

     BASIS OPTIONS
     -------------
     GBASIS=CCD          IGAUSS=       0      POLAR=NONE    
     NDFUNC=       0     NFFUNC=       0     DIFFSP=       F
     NPFUNC=       0      DIFFS=       F     BASNAM=        


     RUN TITLE
     ---------
  NH3+ 3 states calculation at NH3 structure.                                    

 THE POINT GROUP OF THE MOLECULE IS C1      
 THE ORDER OF THE PRINCIPAL AXIS IS     0

 ATOM      ATOMIC                      COORDINATES (BOHR)
           CHARGE         X                   Y                   Z
 N           7.0     0.0941675858        0.0353127596       -0.3200822644
 H           1.0    -1.8656714030        0.9068852535        0.5545694009
 H           1.0    -1.4324026498       -0.9838555277        0.8137726097
 H           1.0     1.9895902129       -0.4137125100        0.0855641605

          INTERNUCLEAR DISTANCES (ANGS.)
          ------------------------------

                1 N          2 H          3 H          4 H     

   1 N       0.0000000    1.2257764 *  1.1416927 *  1.0528898 *
   2 H       1.2257764 *  0.0000000    1.0355944 *  2.1707226 *
   3 H       1.1416927 *  1.0355944 *  0.0000000    1.8758110 *
   4 H       1.0528898 *  2.1707226 *  1.8758110 *  0.0000000  

  * ... LESS THAN  3.000


     ATOMIC BASIS SET
     ----------------
 THE CONTRACTED PRIMITIVE FUNCTIONS HAVE BEEN UNNORMALIZED
 THE CONTRACTED BASIS FUNCTIONS ARE NOW NORMALIZED TO UNITY

  SHELL TYPE  PRIMITIVE        EXPONENT          CONTRACTION COEFFICIENT(S)

 N         

      1   S       1          9046.0000000    0.000699617413
      1   S       2          1357.0000000    0.005386054630
      1   S       3           309.3000000    0.027391021189
      1   S       4            87.7300000    0.103150591982
      1   S       5            28.5600000    0.278570663317
      1   S       6            10.2100000    0.448294849454
      1   S       7             3.8380000    0.278085928395
      1   S       8             0.7466000    0.015431561233

      2   S       9          9046.0000000   -0.000304990096
      2   S      10          1357.0000000   -0.002408026379
      2   S      11           309.3000000   -0.011944448725
      2   S      12            87.7300000   -0.048925992909
      2   S      13            28.5600000   -0.134472724725
      2   S      14            10.2100000   -0.315112577700
      2   S      15             3.8380000   -0.242857832550
      2   S      16             0.7466000    1.094382206854

      3   S      17             0.2248000    1.000000000000

      4   P      18            13.5500000    0.058905676772
      4   P      19             2.9170000    0.320461106714
      4   P      20             0.7973000    0.753042061792

      5   P      21             0.2185000    1.000000000000

      6   D      22             0.8170000    1.000000000000

 H         

      7   S      23            13.0100000    0.033498726390
      7   S      24             1.9620000    0.234800801174
      7   S      25             0.4446000    0.813682957883

      8   S      26             0.1220000    1.000000000000

      9   P      27             0.7270000    1.000000000000

 H         

     10   S      28            13.0100000    0.033498726390
     10   S      29             1.9620000    0.234800801174
     10   S      30             0.4446000    0.813682957883

     11   S      31             0.1220000    1.000000000000

     12   P      32             0.7270000    1.000000000000

 H         

     13   S      33            13.0100000    0.033498726390
     13   S      34             1.9620000    0.234800801174
     13   S      35             0.4446000    0.813682957883

     14   S      36             0.1220000    1.000000000000

     15   P      37             0.7270000    1.000000000000

 TOTAL NUMBER OF BASIS SET SHELLS             =   15
 NUMBER OF CARTESIAN GAUSSIAN BASIS FUNCTIONS =   30
 NOTE: THIS RUN WILL RESTRICT THE MO VARIATION SPACE TO SPHERICAL HARMONICS.
 THE NUMBER OF ORBITALS KEPT IN THE VARIATIONAL SPACE WILL BE PRINTED LATER.
 NUMBER OF ELECTRONS                          =    9
 CHARGE OF MOLECULE                           =    1
 SPIN MULTIPLICITY                            =    2
 NUMBER OF OCCUPIED ORBITALS (ALPHA)          =    5
 NUMBER OF OCCUPIED ORBITALS (BETA )          =    4
 TOTAL NUMBER OF ATOMS                        =    4
 THE NUCLEAR REPULSION ENERGY IS       10.8215108211

     $CONTRL OPTIONS
     ---------------
 SCFTYP=MCSCF        RUNTYP=ENERGY       EXETYP=RUN     
 MPLEVL=       2     CITYP =NONE         CCTYP =NONE         VBTYP =NONE    
 DFTTYP=NONE         TDDFT =NONE    
 MULT  =       2     ICHARG=       1     NZVAR =       0     COORD =UNIQUE  
 PP    =NONE         RELWFN=NONE         LOCAL =NONE         NUMGRD=       F
 ISPHER=       1     NOSYM =       1     MAXIT =     200     UNITS =ANGS    
 PLTORB=       F     MOLPLT=       F     AIMPAC=       F     FRIEND=        
 NPRINT=       7     IREST =       0     GEOM  =INPUT   
 NORMF =       0     NORMP =       0     ITOL  =      20     ICUT  =       9
 INTTYP=RYSQUAD      GRDTYP=BEST         QMTTOL= 1.0E-05

     $SYSTEM OPTIONS
     ---------------
  REPLICATED MEMORY=   100000000 WORDS (ON EVERY NODE).
 DISTRIBUTED MEMDDI=        1000 MILLION WORDS IN AGGREGATE,
 MEMDDI DISTRIBUTED OVER   1 PROCESSORS IS  1000000000 WORDS/PROCESSOR.
 TOTAL MEMORY REQUESTED ON EACH PROCESSOR=  1100000000 WORDS.
 TIMLIM=      525600.00 MINUTES, OR     365.0 DAYS.
 PARALL= T  BALTYP=  DLB     KDIAG=    3  COREFL= F
 MXSEQ2=     300 MXSEQ3=     150  mem10=         0

          ----------------
          PROPERTIES INPUT
          ----------------

     MOMENTS            FIELD           POTENTIAL          DENSITY
 IEMOM =       1   IEFLD =       0   IEPOT =       0   IEDEN =       0
 WHERE =COMASS     WHERE =NUCLEI     WHERE =NUCLEI     WHERE =NUCLEI  
 OUTPUT=BOTH       OUTPUT=BOTH       OUTPUT=BOTH       OUTPUT=BOTH    
 IEMINT=       0   IEFINT=       0                     IEDINT=       0
                                                       MORB  =       0

     -------------------------------
     INTEGRAL TRANSFORMATION OPTIONS
     -------------------------------
     NWORD  =            0
     CUTOFF = 1.0E-09     MPTRAN =       0
     DIRTRF =       T     AOINTS =DUP     

          ----------------------
          MCSCF INPUT PARAMETERS
          ----------------------
 CONVERGER SELECTION: FOCAS = F  SOSCF = F  FULLNR = T  QUD = F  JACOBI = F
 SECULAR EQUATION METHOD CISTEP = GMCCI   
 --- GENERAL INPUT OPTIONS:
 MAXIT =     100  MICIT =       1  ACURCY= 1.000E-06
 DAMP  =   0.000  CANONC=       T  ENGTOL= 1.000E-10
 EKT   =       F  NPUNCH=       2  NWORD =         0
 REGENERATE CI AFTER CONVERGENCE = NONE    
 DIABATIZATION AFTER CONVERGENCE =        F
 --- INPUT FOR FULLNR CONVERGER:
 METHOD=DM2       FORS  =       F  DROPC =       T
 LINSER=       F  FCORE =       F  NORB  =      30

          ----------------------
          INTEGRAL INPUT OPTIONS
          ----------------------
 NOPK  =       1 NORDER=       0 SCHWRZ=       T

 ------------------------------------------
 MULTIREFERENCE PERTURBATION THEORY CONTROL
 ------------------------------------------
 MRPT=GMCPT    READ CONVERGED MCSCF VECTORS= F


     ------------------------------------------
     THE POINT GROUP IS C1 , NAXIS= 1, ORDER= 1
     ------------------------------------------

 -- VARIATIONAL SPACE WILL BE RESTRICTED TO PURE SPHERICAL HARMONICS ONLY --
 AFTER EXCLUDING CONTAMINANT COMBINATIONS FROM THE CARTESIAN GAUSSIAN BASIS
 SET, THE NUMBER OF SPHERICAL HARMONICS KEPT IN THE VARIATION SPACE IS   29

     DIMENSIONS OF THE SYMMETRY SUBSPACES ARE
 A   =   29

 ..... DONE SETTING UP THE RUN .....
 CPU     0: STEP CPU TIME=     0.03 TOTAL CPU TIME=          0.0 (      0.0 MIN)
 TOTAL WALL CLOCK TIME=          0.0 SECONDS, CPU UTILIZATION IS    75.00%

          ********************
          1 ELECTRON INTEGRALS
          ********************
 TIME TO DO   DIPOLE INTEGRALS=      0.00
 ...... END OF ONE-ELECTRON INTEGRALS ......
 CPU     0: STEP CPU TIME=     0.00 TOTAL CPU TIME=          0.0 (      0.0 MIN)
 TOTAL WALL CLOCK TIME=          0.1 SECONDS, CPU UTILIZATION IS    60.00%

          -------------
          GUESS OPTIONS
          -------------
          GUESS =MOREAD            NORB  =      29          NORDER=       0
          MIX   =       F          PRTMO =       F          PUNMO =       F
          TOLZ  = 1.0E-08          TOLE  = 1.0E-05
          SYMDEN=       F          PURIFY=       T

 INITIAL GUESS ORBITALS GENERATED BY MOREAD   ROUTINE.

 STATISTICS FOR GENERATION OF SYMMETRY ORBITAL -Q- MATRIX
 NUMBER OF CARTESIAN ATOMIC ORBITALS=         30
 NUMBER OF SPHERICAL CONTAMINANTS DROPPED=     1
 NUMBER OF LINEARLY DEPENDENT MOS DROPPED=     0
 TOTAL NUMBER OF MOS IN VARIATION SPACE=      29
 ORBITAL PURIFICATION WILL OCCUR

 SYMMETRIES FOR INITIAL GUESS ORBITALS FOLLOW.   BOTH SET(S).
     5 ORBITALS ARE OCCUPIED (    1 CORE ORBITALS).
     1=A        2=A        3=A        4=A        5=A        6=A        7=A   
     8=A        9=A       10=A       11=A       12=A       13=A       14=A   
    15=A       16=A       17=A       18=A       19=A       20=A       21=A   
    22=A       23=A       24=A       25=A       26=A       27=A       28=A   
    29=A   
 ...... END OF INITIAL ORBITAL SELECTION ......
 CPU     0: STEP CPU TIME=     0.01 TOTAL CPU TIME=          0.0 (      0.0 MIN)
 TOTAL WALL CLOCK TIME=          0.1 SECONDS, CPU UTILIZATION IS    80.00%

                    ----------------------
                    AO INTEGRAL TECHNOLOGY
                    ----------------------
     S,P,L SHELL ROTATED AXIS INTEGRALS, REPROGRAMMED BY
        KAZUYA ISHIMURA (IMS) AND JOSE SIERRA (SYNSTAR).
     S,P,D,L SHELL ROTATED AXIS INTEGRALS PROGRAMMED BY
        KAZUYA ISHIMURA (INSTITUTE FOR MOLECULAR SCIENCE).
     S,P,D,F,G SHELL TO TOTAL QUARTET ANGULAR MOMENTUM SUM 5,
        ERIC PROGRAM BY GRAHAM FLETCHER (ELORET AND NASA ADVANCED
        SUPERCOMPUTING DIVISION, AMES RESEARCH CENTER).
     S,P,D,F,G,L SHELL GENERAL RYS QUADRATURE PROGRAMMED BY
        MICHEL DUPUIS (PACIFIC NORTHWEST NATIONAL LABORATORY).

          --------------------
          2 ELECTRON INTEGRALS
          --------------------

 DIRECT SCF METHOD SKIPS INTEGRAL STORAGE ON DISK.
 DIRECT TRANSFORMATION SKIPS AO INTEGRAL STORAGE ON DISK.
  ...... END OF TWO-ELECTRON INTEGRALS .....
 STEP CPU TIME =     0.02 TOTAL CPU TIME =          0.1 (      0.0 MIN)
 TOTAL WALL CLOCK TIME=          0.1 SECONDS, CPU UTILIZATION IS    75.00%
 DDI: Creating Array [0] - 900 x 36 = 32400 words.
 DDI: Creating Array [1] - 21 x 288 = 6048 words.
 DDI: Creating Array [2] - 36 x 36 = 1296 words.
 DDI: Creating Array [3] - 465 x 36 = 16740 words.

          -----------------
          MCSCF CALCULATION
          -----------------

 ----- NUCLEAR ENERGY ----- =        10.8215108211

     -------------------------------------------------
     GMC-PT/GMC-QDPT or general MCSCF input parameters
     -------------------------------------------------
 # of frozen core orbs. =         0 ->         0
 # of doubly occ. orbs. =         1
 # of active      orbs. =         7
 # of virtual     orbs. =        21
 # of active electrons  =         7
 # of states in CI      =         3
 Highest state in CI    =         3
 kstate =  1 1 1
 avecoe =  0.333 0.333 0.333
 State symmetry           = A           
 Assigned symmetry number = 1

 <<<Act. MO sym.: 1111111

 <<<Division of 1-ext.:  0
 <<<Division of 2-ext.:  0

 *** Reference space

 Reference type: ORMAS (= Occupation restricted multiple active space)
 # of orbitals          =  7
 # of minimum electrons =  7
 # of maximum electrons =  7
 State symmetry    =    1 (input)
 2*Sz              =    1 (input)
 Spin multiplicity =    2 (input)
 Dimension of reference space =      1225  (from      3432 walks)

 Dimension of reference space =      1225  (from      1225 walks)

 <<<Ionized spaces for Ref-CI:
      0:         1225 /   -1-0:         1960 /  0-1-0:         2891

 EVALUATING EXCHANGE INTEGRALS FOR DIRECT INTEGRAL TRANSFORMATION
 SCHWARZ INEQUALITY OVERHEAD:       465 INTEGRALS, T=        0.00

     --------------------------------------------
     PARTIAL TWO ELECTRON INTEGRAL TRANSFORMATION
     --------------------------------------------

 NUMBER OF CORE MOLECULAR ORBITALS     =    1
 NUMBER OF OCCUPIED MOLECULAR ORBITALS =    8
 TOTAL NUMBER OF MOLECULAR ORBITALS    =   29
 TOTAL NUMBER OF ATOMIC ORBITALS       =   30
 THRESHOLD FOR KEEPING TRANSFORMED 2E- INTEGRALS = 1.000E-09

 -------------------------------     ------------------------------
 DISTRIBUTED DATA TRANSFORMATION     PROGRAM WRITTEN BY G. FLETCHER
 -------------------------------     ------------------------------

 THE DISTRIBUTED MEMORY REQUIRED FOR THIS STEP IS MEMDDI=         1 MWORDS
 CREATING DISTRIBUTED STORAGE FOR [VIR OCC|VIR OCC] INTEGRALS
 CREATING DISTRIBUTED STORAGE FOR [VIR OCC|OCC OCC] INTEGRALS
 CREATING DISTRIBUTED STORAGE FOR [OCC OCC|OCC OCC] INTEGRALS
 CREATING DISTRIBUTED STORAGE FOR [VIR VIR|OCC OCC] INTEGRALS
 FOR    1 PROCESSORS, THE REPLICATED MEMORY NEEDED IS       73700 WORDS.
 SCHWARZ INEQUALITY OVERHEAD:       465 INTEGRALS, T=        0.01

      DIRECT 4-INDEX TRANSFORMATION 
      SCHWARZ INEQUALITY TEST SKIPPED          0 INTEGRAL BLOCKS
 ----- FROZEN CORE ENERGY =       -47.5274967974
 ... END OF INTEGRAL TRANSFORMATION ...
 CPU     0: STEP CPU TIME=     0.23 TOTAL CPU TIME=          0.3 (      0.0 MIN)
 TOTAL WALL CLOCK TIME=          0.3 SECONDS, CPU UTILIZATION IS    96.67%

     --------------------------------     -----------------------------
     MCHF NEWTON-RAPHSON OPTIMIZATION     CODE WRITTEN BY MICHEL DUPUIS
     --------------------------------     -----------------------------
     PARALLEL VERSION WRITTEN BY G. FLETCHER (ELORET)
     NASA ADVANCED SUPERCOMPUTING DIVISION, AMES RESEARCH CENTER

 NUMBER OF INDEPENDENT ORBITAL ROTATION PARAMETERS =   175
 ..... DONE SOLVING NEWTON-RAPHSON EQUATIONS .....
 CPU     0: STEP CPU TIME=     0.88 TOTAL CPU TIME=          1.2 (      0.0 MIN)
 TOTAL WALL CLOCK TIME=          1.2 SECONDS, CPU UTILIZATION IS    99.15%
 ..... DONE WITH NTN-RPH ORBITAL ROTATIONS ..... 
 CPU     0: STEP CPU TIME=     0.00 TOTAL CPU TIME=          1.2 (      0.0 MIN)
 TOTAL WALL CLOCK TIME=          1.2 SECONDS, CPU UTILIZATION IS    99.15%
 MAXIMUM MEMORY USED BY NTN-RPH CODE WAS     57645 WORDS.

 ITER     TOTAL ENERGY      DEL(E)  LAGRANGIAN ASYMMETRY   SQCDF  MICIT   DAMP
   1      -55.536824764 -0.536824764  0.178307   10    4 8.714E-02  1   0.0000
   2      -55.610820437 -0.073995673  0.021443   12    5 4.464E-01  1   0.0000
   3      -55.649060826 -0.038240388  0.017098   12    5 2.332E-01  1   0.0154
   4      -55.666057174 -0.016996349  0.006364   11    6 5.628E-02  1   0.0060
   5      -55.669573604 -0.003516430  0.002558   24    6 7.055E-03  1   0.0000
   6      -55.670217848 -0.000644244  0.000903   22    5 9.228E-04  1   0.0000
   7      -55.670303685 -0.000085837  0.000476   25    4 1.337E-04  1   0.0000
   8      -55.670315893 -0.000012208  0.000211   25    4 2.528E-05  1   0.0000
   9      -55.670318070 -0.000002177  0.000089   25    4 5.900E-06  1   0.0000
  10      -55.670318537 -0.000000467  0.000037   14    4 1.602E-06  1   0.0000
  11      -55.670318654 -0.000000117  0.000018   22    5 4.828E-07  1   0.0000
  12      -55.670318687 -0.000000033  0.000010   22    5 1.563E-07  1   0.0000
  13      -55.670318697 -0.000000010  0.000006   22    5 5.325E-08  1   0.0000
  14      -55.670318700 -0.000000003  0.000004   22    5 1.882E-08  1   0.0000
  15      -55.670318701 -0.000000001  0.000002   22    5 6.844E-09  1   0.0000
  16      -55.670318702 -0.000000000  0.000001   22    5 2.535E-09  1   0.0000
  17      -55.670318702 -0.000000000  0.000001   12    7 9.458E-10  1   0.0000

          --------------------
          LAGRANGIAN CONVERGED
          --------------------

 FINAL MCSCF ENERGY IS      -55.6703187019 AFTER  17 ITERATIONS

 -MCCI- BASED ON OPTIMIZED ORBITALS
 ----------------------------------

 PLEASE NOTE: IF THE ACTIVE ORBITALS ARE CANONICALIZED BELOW,
 THE FOLLOWING CI EXPANSION COEFFICIENTS AND THE DENSITY DO NOT
 CORRESPOND TO THE PRINTED ORBITALS.  THE PRINTED EXPANSIONS MATCH
 THE ORBITALS USED DURING THE LAST ITERATION.  IF YOU WISH TO SEE
 CI EXPANSIONS BASED ON THE CANONICAL (OR NATURAL) ORBITALS, YOU
 MUST RUN A CI CALCULATION WITH THAT ORBITAL CHOICE READ IN $VEC.

 Averaged energy =     -55.670318702

 State #    1  Energy =     -55.802825159  S =  0.500

      Det      Coef    Occupancy (Ignoring core)
      ---      ----    --------- --------- -----
        1    0.878118  11110001110000
        5   -0.071663  01111001110000
        8   -0.123109  10110101110000
       17   -0.150290  11010011110000
       36   -0.299915  11110001101000
       71    0.143783  11110001011000
      211    0.052265  11110000110100
      386    0.099267  11110001010010
      701    0.105062  11110001100001
      717    0.067183  11010011100001

 State #    2  Energy =     -55.726484461  S =  0.500

      Det      Coef    Occupancy (Ignoring core)
      ---      ----    --------- --------- -----
        1    0.297491  11110001110000
       36    0.896485  11110001101000
       38   -0.058852  11011001101000
       39    0.062174  10111001101000
       40   -0.073601  01111001101000
       43   -0.099707  10110101101000
       52   -0.137552  11010011101000
      281    0.050856  11110000101100
      456    0.088548  11110001001010
      701    0.066587  11110001100001

 State #    3  Energy =     -55.481646486  S =  0.500

      Det      Coef    Occupancy (Ignoring core)
      ---      ----    --------- --------- -----
        1    0.138291  11110001110000
       36   -0.053932  11110001101000
       38   -0.067240  11011001101000
       71   -0.935064  11110001011000
       78    0.060438  10110101011000
       87    0.097339  11010011011000
      122   -0.058217  11010010111000
      316   -0.083801  11110000011100
      806    0.116516  11110001001001
      822    0.078488  11010011001001

 DENSITY MATRIX OVER ACTIVE MO-S

             1           2           3           4           5

    1    1.9699832
    2   -0.0128703   1.6346130
    3   -0.0209178  -0.0030343   1.6056675
    4   -0.0004115   0.0003894  -0.0065767   1.6452708
    5    0.1108476   0.0677698   0.0682198  -0.0438903   0.0497121
    6    0.0071206  -0.1486178  -0.0251099  -0.0559863  -0.0018934
    7    0.0146546  -0.0009301   0.1946505   0.0489215   0.0127440

             6           7

    6    0.0366104
    7   -0.0062410   0.0581430

 FORMING THE "STANDARD FOCK OPERATOR" IN DIRECT AO INTEGRAL MODE...
 ONLY THE    1 CORE AND   21 VIRTUAL ORBITALS WILL BE CANONICALIZED

          ----------------------
          MCSCF NATURAL ORBITALS
          ----------------------

                      1          2          3          4          5
                  -15.9827     1.9775     1.6540     1.6472     1.6322
                     A          A          A          A          A   
    1  N  1  S    1.001020   0.009078  -0.006175  -0.006862   0.001728
    2  N  1  S   -0.001971   0.432271  -0.059356  -0.193936   0.022480
    3  N  1  S   -0.006365   0.345964  -0.129988  -0.278757   0.037953
    4  N  1  X    0.000210  -0.027401   0.396608  -0.223420  -0.012663
    5  N  1  Y   -0.000168  -0.033725   0.019072  -0.060910   0.562909
    6  N  1  Z    0.001166   0.077474   0.390671   0.414881   0.070403
    7  N  1  X    0.000154  -0.011268   0.171498  -0.041270   0.009284
    8  N  1  Y    0.000054  -0.005206   0.032415  -0.033589   0.344540
    9  N  1  Z   -0.000655   0.019290   0.278607   0.258472   0.064463
   10  N  1 XX    0.000408   0.005032  -0.004589  -0.009378   0.003582
   11  N  1 YY   -0.000220  -0.004037  -0.009534  -0.007553  -0.006801
   12  N  1 ZZ   -0.000189  -0.000995   0.014122   0.016931   0.003219
   13  N  1 XY   -0.000060  -0.001791  -0.004887   0.005023  -0.010840
   14  N  1 XZ    0.000005  -0.003536   0.013842  -0.012558  -0.000987
   15  N  1 YZ   -0.000068  -0.000918  -0.001730  -0.005944   0.023065
   16  H  2  S   -0.001145   0.161978  -0.100123   0.211856   0.268885
   17  H  2  S    0.000249  -0.000417   0.002167   0.027484   0.130632
   18  H  2  X   -0.000505   0.023594  -0.007706   0.016243   0.031355
   19  H  2  Y    0.000274  -0.013500   0.011020  -0.021956   0.001929
   20  H  2  Z    0.000307  -0.006582   0.021771   0.010091  -0.006549
   21  H  3  S   -0.001490   0.204277  -0.077300   0.311352  -0.209853
   22  H  3  S    0.000294   0.009178   0.006477   0.070929  -0.118705
   23  H  3  X   -0.000578   0.024817   0.005670   0.013713  -0.020055
   24  H  3  Y   -0.000483   0.021555  -0.003812   0.029650   0.006084
   25  H  3  Z    0.000471  -0.016099   0.023230  -0.000167   0.018430
   26  H  4  S   -0.001797   0.164750   0.338235  -0.148464  -0.059139
   27  H  4  S    0.000686  -0.001244   0.051284  -0.006929   0.004025
   28  H  4  X    0.000952  -0.031215  -0.035515   0.017030   0.013807
   29  H  4  Y   -0.000226   0.004900   0.012786  -0.008537   0.017585
   30  H  4  Z    0.000266  -0.001869   0.006976   0.019908   0.004037

                      6          7          8
                    0.0395     0.0303     0.0193
                     A          A          A   
    1  N  1  S   -0.126522  -0.032310   0.142887
    2  N  1  S   -0.487317  -0.164887   0.424537
    3  N  1  S   -0.163926  -0.194466  -0.023133
    4  N  1  X    0.201996   0.339780   0.810294
    5  N  1  Y   -0.358264   0.619524  -0.255537
    6  N  1  Z   -0.456622  -0.354752   0.170653
    7  N  1  X    0.086336   0.098864   0.105776
    8  N  1  Y    0.087309  -0.075176  -0.009184
    9  N  1  Z    0.013273  -0.035768  -0.101791
   10  N  1 XX    0.051079  -0.002380  -0.020217
   11  N  1 YY   -0.046478  -0.001157  -0.008723
   12  N  1 ZZ   -0.004601   0.003536   0.028940
   13  N  1 XY   -0.040941   0.048119   0.027970
   14  N  1 XZ   -0.029806  -0.024093  -0.028154
   15  N  1 YZ   -0.002101  -0.017658   0.024824
   16  H  2  S    0.684230  -0.185084   0.276930
   17  H  2  S    0.214301  -0.176023   0.101055
   18  H  2  X    0.052016  -0.037754   0.009587
   19  H  2  Y   -0.026971  -0.034063  -0.021631
   20  H  2  Z    0.017724   0.026728   0.007774
   21  H  3  S    0.047105   0.805945   0.018729
   22  H  3  S   -0.097477   0.281418  -0.027459
   23  H  3  X   -0.021554   0.026935  -0.033668
   24  H  3  Y    0.041008   0.031279   0.015722
   25  H  3  Z    0.025601  -0.013876   0.005638
   26  H  4  S    0.330370   0.006945  -0.806054
   27  H  4  S    0.041773  -0.025881  -0.157550
   28  H  4  X   -0.032170  -0.012731   0.076670
   29  H  4  Y    0.015896  -0.006147  -0.015468
   30  H  4  Z   -0.001660   0.001360  -0.030777

          ------------------------
          MCSCF OPTIMIZED ORBITALS
          ------------------------

                      1          2          3          4          5
                  -15.9827     0.0000     0.0000     0.0000     0.0000
                     A          A          A          A          A   
    1  N  1  S    1.001020   0.000116  -0.017564  -0.007656  -0.008825
    2  N  1  S   -0.001971   0.399471   0.011267  -0.000651  -0.179762
    3  N  1  S   -0.006365   0.334907   0.064457   0.066992  -0.280162
    4  N  1  X    0.000210  -0.003550   0.367234   0.019094   0.053891
    5  N  1  Y   -0.000168  -0.014311  -0.002168   0.472754   0.011536
    6  N  1  Z    0.001166   0.050018  -0.005294  -0.014221   0.591188
    7  N  1  X    0.000154   0.000137   0.145951   0.017971   0.073635
    8  N  1  Y    0.000054   0.012779   0.008197   0.357686   0.038885
    9  N  1  Z   -0.000655   0.026031   0.047862   0.026807   0.385534
   10  N  1 XX    0.000408   0.008097   0.005181   0.010086  -0.009698
   11  N  1 YY   -0.000220  -0.006861  -0.001738  -0.009808  -0.011864
   12  N  1 ZZ   -0.000189  -0.001237  -0.003442  -0.000277   0.021562
   13  N  1 XY   -0.000060  -0.003922  -0.009632  -0.019651  -0.003069
   14  N  1 XZ    0.000005  -0.004787   0.020850   0.000579   0.001521
   15  N  1 YZ   -0.000068  -0.000706  -0.002604   0.024799  -0.002488
   16  H  2  S   -0.001145   0.195753  -0.256132   0.302756   0.119919
   17  H  2  S    0.000249   0.011093  -0.034773   0.159343   0.041424
   18  H  2  X   -0.000505   0.026172  -0.019973   0.035213   0.011708
   19  H  2  Y    0.000274  -0.014648   0.024154   0.006523  -0.006612
   20  H  2  Z    0.000307  -0.004959   0.010458  -0.008110   0.019337
   21  H  3  S   -0.001490   0.207202  -0.244033  -0.331126   0.117313
   22  H  3  S    0.000294   0.004399  -0.028134  -0.161887   0.031479
   23  H  3  X   -0.000578   0.023634  -0.000219  -0.027297   0.011012
   24  H  3  Y   -0.000483   0.023815  -0.023867   0.001390   0.018020
   25  H  3  Z    0.000471  -0.013665   0.016073   0.022702   0.017500
   26  H  4  S   -0.001797   0.199967   0.438682  -0.003531   0.111404
   27  H  4  S    0.000686   0.003770   0.059237   0.012301   0.032398
   28  H  4  X    0.000952  -0.034633  -0.046559   0.009468  -0.008906
   29  H  4  Y   -0.000226   0.006945   0.014772   0.020627   0.004320
   30  H  4  Z    0.000266  -0.001598  -0.004894   0.000578   0.020497

                      6          7          8          9         10
                    0.0000     0.0000     0.0000     0.1098     0.1980
                     A          A          A          A          A   
    1  N  1  S    0.158894   0.108858   0.009835  -0.078290   0.038416
    2  N  1  S    0.629998   0.288908   0.031804  -0.107476   0.042481
    3  N  1  S    0.256877  -0.104376  -0.069153   0.947307  -0.524715
    4  N  1  X   -0.105019   0.933468   0.020563   0.038614   0.146624
    5  N  1  Y   -0.030925  -0.088809   0.816614   0.021425  -0.062708
    6  N  1  Z    0.584069   0.019422  -0.073721  -0.098201   0.050361
    7  N  1  X   -0.087014   0.157154   0.020717  -0.237156  -0.753627
    8  N  1  Y   -0.025578  -0.013418  -0.061290  -0.062381   0.175109
    9  N  1  Z   -0.026712  -0.087953  -0.001197   0.261187  -0.046927
   10  N  1 XX   -0.046163  -0.013587  -0.023807   0.080682  -0.073653
   11  N  1 YY    0.037204  -0.014873   0.023575  -0.048373   0.030121
   12  N  1 ZZ    0.008959   0.028460   0.000232  -0.032309   0.043532
   13  N  1 XY    0.018191   0.035074   0.053655  -0.004743   0.039729
   14  N  1 XZ    0.029871  -0.035641   0.001204  -0.058439  -0.077098
   15  N  1 YZ    0.017488   0.018038  -0.015619  -0.019078   0.014922
   16  H  2  S   -0.412860   0.272983  -0.526900   0.450033   0.176780
   17  H  2  S   -0.068723   0.068649  -0.258982  -0.850625  -0.582328
   18  H  2  X   -0.022207   0.002850  -0.055891  -0.054756  -0.029715
   19  H  2  Y    0.033858  -0.031995  -0.009531  -0.034808  -0.001817
   20  H  2  Z   -0.026246   0.019150   0.011034   0.035368   0.058069
   21  H  3  S   -0.427483   0.244557   0.610211   0.406027   0.148533
   22  H  3  S   -0.064543   0.043924   0.273122  -0.930097  -0.485344
   23  H  3  X   -0.003129  -0.026500   0.037747  -0.095690  -0.006257
   24  H  3  Y   -0.045440   0.027722   0.002411   0.020503   0.001721
   25  H  3  Z   -0.013400   0.006664  -0.022969   0.043537   0.040556
   26  H  4  S   -0.466186  -0.681038  -0.002615   0.273176  -0.556200
   27  H  4  S   -0.061922  -0.145878  -0.009685  -0.411273   1.938207
   28  H  4  X    0.049855   0.060821  -0.008414   0.055726  -0.132156
   29  H  4  Y   -0.012827  -0.012862  -0.007668   0.005027   0.036831
   30  H  4  Z   -0.008044  -0.028756   0.008831  -0.027025  -0.061033

                     11         12         13         14         15
                    0.2778     0.5265     0.5794     0.6828     0.8804
                     A          A          A          A          A   
    1  N  1  S    0.008350  -0.103804   0.033206   0.043715  -0.601482
    2  N  1  S    0.022713  -0.145678  -0.019992   0.075687  -1.348287
    3  N  1  S   -0.061209   0.693166  -0.505459  -0.106109   2.236353
    4  N  1  X    0.031326  -0.231748  -0.127324  -0.396121   0.148464
    5  N  1  Y   -0.056327  -0.421190  -0.506053   0.271881   0.001987
    6  N  1  Z   -0.000233  -0.593017   0.438018   0.193244   0.270088
    7  N  1  X   -0.113742   0.582707   0.506307   1.677876  -0.226019
    8  N  1  Y    0.480321   0.579903   1.098151  -0.616675  -0.044388
    9  N  1  Z   -0.065290   0.746427  -0.834311  -0.463869  -0.146007
   10  N  1 XX    0.012967  -0.024770   0.039905  -0.028718  -0.074695
   11  N  1 YY   -0.004731  -0.000142  -0.024315  -0.003474   0.049529
   12  N  1 ZZ   -0.008236   0.024911  -0.015590   0.032193   0.025166
   13  N  1 XY   -0.082257  -0.002655   0.030927  -0.056081  -0.061391
   14  N  1 XZ    0.011658  -0.014218   0.004045  -0.085811   0.003522
   15  N  1 YZ    0.052488  -0.003555  -0.007999   0.038830  -0.041549
   16  H  2  S    0.598032  -0.226292  -0.027351   0.567795  -0.044689
   17  H  2  S   -2.170902  -0.280838  -0.488193   0.487333  -0.353968
   18  H  2  X   -0.027360   0.039026   0.006487   0.239834   0.024835
   19  H  2  Y    0.115472   0.052421  -0.106090  -0.034665   0.252789
   20  H  2  Z   -0.009225   0.136176  -0.035896   0.146124   0.096739
   21  H  3  S   -0.638180   0.061591   0.596380   0.174072  -0.012270
   22  H  3  S    2.278153   0.279706   0.878022   0.111119  -0.325757
   23  H  3  X    0.005353   0.084930   0.080332   0.145317   0.084363
   24  H  3  Y    0.118286  -0.009758   0.063997   0.177517  -0.188622
   25  H  3  Z   -0.030584   0.082526  -0.122679   0.088954   0.214890
   26  H  4  S    0.092359  -0.472391   0.223882  -0.544425  -0.125881
   27  H  4  S   -0.168154  -0.332603  -0.218182  -0.586669  -0.491362
   28  H  4  X   -0.023620   0.071774   0.034137   0.158233   0.059913
   29  H  4  Y   -0.028354  -0.019005   0.092114  -0.102049  -0.159451
   30  H  4  Z    0.004671   0.012837  -0.045019  -0.161350   0.126755

                     16         17         18         19         20
                    1.0637     1.1020     1.2212     1.3005     1.4255
                     A          A          A          A          A   
    1  N  1  S   -0.232484  -0.211252  -0.008007  -0.221551  -0.332504
    2  N  1  S   -0.497054  -0.420847  -0.010579  -0.473861  -0.729919
    3  N  1  S    1.028584   0.944277   0.078499   0.818852   0.978073
    4  N  1  X   -0.198420  -0.046246  -0.189978   0.053809   0.115540
    5  N  1  Y    0.118414   0.040881  -0.013124  -0.078514   0.018080
    6  N  1  Z   -0.031424   0.060137  -0.011060   0.002918  -0.111592
    7  N  1  X    1.119778  -0.044195   0.935720  -0.081976  -0.252194
    8  N  1  Y   -0.444609  -0.262409   0.217612   0.136162  -0.289308
    9  N  1  Z    0.298821  -0.103805  -0.054635   0.353074   0.537178
   10  N  1 XX    0.067982  -0.000055  -0.031946  -0.003308   0.123605
   11  N  1 YY    0.093201  -0.222685   0.047407   0.106749  -0.182687
   12  N  1 ZZ   -0.161184   0.222740  -0.015462  -0.103441   0.059082
   13  N  1 XY    0.150869   0.097718  -0.137048  -0.003324  -0.034361
   14  N  1 XZ    0.041469   0.103374   0.027981  -0.037732  -0.020868
   15  N  1 YZ    0.090882   0.069797  -0.256992   0.248726   0.063558
   16  H  2  S    0.461978  -0.171227   0.214678  -0.431654  -0.398414
   17  H  2  S    0.079266   0.014239   0.036476   0.060473   0.190158
   18  H  2  X   -0.237701  -0.208850  -0.333363   0.259862   0.005150
   19  H  2  Y    0.036363  -0.327504  -0.253237  -0.192852  -0.288554
   20  H  2  Z   -0.229927   0.322859  -0.467959   0.184517  -0.594125
   21  H  3  S   -0.034032  -0.355528   0.218070  -0.186922  -0.439804
   22  H  3  S   -0.118484  -0.125195   0.112828  -0.114575  -0.179028
   23  H  3  X   -0.115628  -0.163241  -0.036422  -0.596665   0.116372
   24  H  3  Y   -0.205736   0.338262   0.096638   0.059470   0.219101
   25  H  3  Z   -0.507473   0.147653   0.044939  -0.375066   0.273193
   26  H  4  S   -0.695339  -0.147919  -0.430538  -0.118481  -0.218434
   27  H  4  S   -0.486134  -0.162281  -0.205617  -0.085302  -0.068273
   28  H  4  X    0.143576   0.013143  -0.234883  -0.064500   0.034048
   29  H  4  Y    0.320504   0.241420  -0.542226  -0.432860   0.250797
   30  H  4  Z    0.096386   0.439327   0.281352  -0.214950  -0.538468

                     21         22         23         24         25
                    1.5901     1.6730     1.8584     1.9418     2.1529
                     A          A          A          A          A   
    1  N  1  S    0.123400   0.058108   0.135488   0.006168   0.024512
    2  N  1  S    0.216084   0.232342   0.298721  -0.003654   0.023404
    3  N  1  S   -0.736791   0.689173   0.159203  -0.097380  -0.430308
    4  N  1  X   -0.132033  -0.328185   0.511814   0.102879  -0.056247
    5  N  1  Y   -0.062512  -0.134935  -0.122338  -0.037617   0.083647
    6  N  1  Z   -0.010583   0.219973  -0.008903  -0.007440  -0.046734
    7  N  1  X    0.744060  -0.144366   0.379375  -0.080107   0.029694
    8  N  1  Y   -0.385993  -0.073286  -0.031558  -0.183472   0.265850
    9  N  1  Z   -0.382049   0.253699   0.011594  -0.207845  -0.254513
   10  N  1 XX    0.038718  -0.101613  -0.209885  -0.045399   0.292653
   11  N  1 YY   -0.115549   0.079879   0.038249   0.847656  -0.060979
   12  N  1 ZZ    0.076831   0.021734   0.171636  -0.802257  -0.231674
   13  N  1 XY   -0.141119  -0.041855   0.016783  -0.001870   0.588317
   14  N  1 XZ   -0.026113   0.127686  -0.191141   0.060042   0.061162
   15  N  1 YZ    0.157539   0.265476   0.218727  -0.012016   0.544524
   16  H  2  S    0.230233  -0.029102   0.023145   0.045699  -0.225665
   17  H  2  S    0.541367  -0.191982   0.093589   0.188869  -0.281528
   18  H  2  X    0.705969  -0.514128   0.094119   0.167801  -0.161079
   19  H  2  Y    0.161164   0.124326  -0.056825  -0.343811   0.650999
   20  H  2  Z   -0.420829  -0.044747  -0.422366   0.031790  -0.193978
   21  H  3  S    0.465087   0.029639   0.046720  -0.141594   0.500486
   22  H  3  S   -0.242362  -0.412160   0.192843  -0.090004   0.372326
   23  H  3  X   -0.314676  -0.603825   0.058330   0.131487   0.249474
   24  H  3  Y   -0.077184  -0.265037   0.136075   0.164717   0.653264
   25  H  3  Z    0.178531   0.614362  -0.083761   0.385268   0.177654
   26  H  4  S   -0.241691  -0.054823  -0.104195   0.035870   0.159175
   27  H  4  S    0.030588  -0.013051  -0.498460   0.019756   0.059509
   28  H  4  X   -0.294391   0.235853   0.974690   0.052925  -0.333343
   29  H  4  Y    0.312657   0.053182  -0.239861   0.265977  -0.460344
   30  H  4  Z    0.500585  -0.293418   0.395509   0.221384   0.123955

                     26         27         28         29
                    2.2381     2.4910     2.6652     2.9880
                     A          A          A          A   
    1  N  1  S   -0.099320   0.086593  -0.141386  -0.086539
    2  N  1  S   -0.165127   0.197121  -0.155793  -0.050613
    3  N  1  S    0.634496   0.334710   1.564543   1.539725
    4  N  1  X   -0.011954   0.306210  -0.168797   0.372462
    5  N  1  Y    0.036278  -0.144836  -0.165565   0.034460
    6  N  1  Z    0.020361   0.076947   0.215642   0.108466
    7  N  1  X   -0.061320   1.021367  -0.806152   0.522866
    8  N  1  Y   -0.421031  -0.390764  -0.302770   0.031906
    9  N  1  Z    0.288191   0.008683   0.466564   0.170582
   10  N  1 XX   -0.151396   0.448460   0.635806   1.139721
   11  N  1 YY    0.157083  -0.294423  -0.317738  -0.498134
   12  N  1 ZZ   -0.005687  -0.154036  -0.318068  -0.641587
   13  N  1 XY    0.020487   0.447147   0.511962  -0.935980
   14  N  1 XZ   -0.046091   0.854649  -0.956970   0.116390
   15  N  1 YZ   -0.575583  -0.410021  -0.376121   0.173897
   16  H  2  S   -0.566043   0.682790  -0.225565  -0.696781
   17  H  2  S   -0.173450   0.395008  -0.022797  -0.174574
   18  H  2  X   -0.017082   0.685909  -0.149613  -0.622279
   19  H  2  Y    0.974863  -0.282872  -0.125888   0.452272
   20  H  2  Z   -0.155491  -0.113367   0.147292   0.363077
   21  H  3  S    0.155975  -0.173350  -1.234416   0.413443
   22  H  3  S    0.058233  -0.156405  -0.507373   0.068369
   23  H  3  X   -0.715888  -0.139780  -0.687007   0.180197
   24  H  3  Y    0.979546  -0.269427  -0.674260   0.320209
   25  H  3  Z   -0.060252   0.202396   0.636058  -0.184635
   26  H  4  S   -0.133606  -0.881913  -0.109295  -1.302324
   27  H  4  S   -0.115054  -0.395432   0.034396  -0.378100
   28  H  4  X    0.199222   0.724504   0.108427   1.009772
   29  H  4  Y    0.253651  -0.391607  -0.124216  -0.140489
   30  H  4  Z   -0.156418  -0.107898   0.245015   0.356714
 .....DONE WITH MCSCF ITERATIONS.....
 CPU     0: STEP CPU TIME=    11.58 TOTAL CPU TIME=         12.8 (      0.2 MIN)
 TOTAL WALL CLOCK TIME=         12.8 SECONDS, CPU UTILIZATION IS    99.92%

     ----------------------------------------------------------------
     PROPERTY VALUES FOR THE MCSCF SELF-CONSISTENT FIELD WAVEFUNCTION
     ----------------------------------------------------------------

          -----------------
          ENERGY COMPONENTS
          -----------------

         WAVEFUNCTION NORMALIZATION =       1.0000000000

                ONE ELECTRON ENERGY =     -93.1949945489
                TWO ELECTRON ENERGY =      26.7031650260
           NUCLEAR REPULSION ENERGY =      10.8215108211
                                      ------------------
                       TOTAL ENERGY =     -55.6703187019

 ELECTRON-ELECTRON POTENTIAL ENERGY =      26.7031650260
  NUCLEUS-ELECTRON POTENTIAL ENERGY =    -148.8103776290
   NUCLEUS-NUCLEUS POTENTIAL ENERGY =      10.8215108211
                                      ------------------
             TOTAL POTENTIAL ENERGY =    -111.2857017819
               TOTAL KINETIC ENERGY =      55.6153830800
                 VIRIAL RATIO (V/T) =       2.0009877775

          ---------------------------------------
          MULLIKEN AND LOWDIN POPULATION ANALYSES
          ---------------------------------------

     ATOMIC MULLIKEN POPULATION IN EACH MOLECULAR ORBITAL

                      1          2          3          4          5

                  2.000000   1.977496   1.654021   1.647200   1.632213

    1             2.000499   1.376830   1.221086   1.094814   1.255133
    2            -0.000079   0.170188   0.047168   0.154786   0.236760
    3            -0.000170   0.263404   0.030544   0.302172   0.120430
    4            -0.000250   0.167074   0.355223   0.095428   0.019891

                      6          7          8

                  0.039496   0.030300   0.019273

    1             0.017844   0.014537   0.010270
    2             0.017790   0.000905   0.000904
    3             0.000147   0.014930   0.000076
    4             0.003714  -0.000072   0.008024
 WARNING! MCSCF POPULATIONS SHOWN ABOVE ARE FOR THE NATURAL ORBITALS.
 IGNORE THE ABOVE DATA FOR MCSCF FUNCTIONS WHICH ARE NOT OF -FORS- TYPE.
 THE FOLLOWING POPULATIONS ARE CORRECT FOR ANY MCSCF WAVEFUNCTION.

               ----- POPULATIONS IN EACH AO -----
                             MULLIKEN      LOWDIN
              1  N  1  S      2.00214     1.90575
              2  N  1  S      0.81749     0.58347
              3  N  1  S      0.73171     0.42375
              4  N  1  X      0.59783     0.51827
              5  N  1  Y      0.78596     0.73312
              6  N  1  Z      0.82024     0.77524
              7  N  1  X      0.23106     0.37274
              8  N  1  Y      0.47337     0.51993
              9  N  1  Z      0.51705     0.55699
             10  N  1 XX      0.00040     0.19186
             11  N  1 YY      0.00194     0.15202
             12  N  1 ZZ      0.00303     0.14546
             13  N  1 XY      0.00534     0.00749
             14  N  1 XZ      0.00347     0.01235
             15  N  1 YZ      0.00000     0.00443
             16  H  2  S      0.51244     0.38634
             17  H  2  S      0.06627     0.15597
             18  H  2  X      0.02315     0.03603
             19  H  2  Y      0.01565     0.04938
             20  H  2  Z      0.01091     0.02418
             21  H  3  S      0.60852     0.45706
             22  H  3  S      0.06564     0.15646
             23  H  3  X      0.01829     0.03328
             24  H  3  Y      0.02173     0.05696
             25  H  3  Z      0.01735     0.03471
             26  H  4  S      0.56535     0.44082
             27  H  4  S      0.02849     0.14927
             28  H  4  X      0.03537     0.06273
             29  H  4  Y      0.01023     0.02671
             30  H  4  Z      0.00959     0.02722

          ----- MULLIKEN ATOMIC OVERLAP POPULATIONS -----
          (OFF-DIAGONAL ELEMENTS NEED TO BE MULTIPLIED BY 2)

             1           2           3           4

    1    6.2507733
    2    0.2114286   0.4204493
    3    0.2297576   0.0014697   0.5035104
    4    0.2990540  -0.0049267  -0.0032044   0.3581094

          TOTAL MULLIKEN AND LOWDIN ATOMIC POPULATIONS
       ATOM         MULL.POP.    CHARGE          LOW.POP.     CHARGE
    1 N             6.991013    0.008987         6.902860    0.097140
    2 H             0.628421    0.371579         0.651904    0.348096
    3 H             0.731533    0.268467         0.738472    0.261528
    4 H             0.649032    0.350968         0.706763    0.293237

          MULLIKEN SPHERICAL HARMONIC POPULATIONS
       ATOM           S       P       D      F      G      H      I    TOTAL
    1 N             3.55    3.43    0.01   0.00   0.00   0.00   0.00    6.99
    2 H             0.58    0.05    0.00   0.00   0.00   0.00   0.00    0.63
    3 H             0.67    0.06    0.00   0.00   0.00   0.00   0.00    0.73
    4 H             0.59    0.06    0.00   0.00   0.00   0.00   0.00    0.65

          ---------------------
          ELECTROSTATIC MOMENTS
          ---------------------

 POINT   1           X           Y           Z (BOHR)    CHARGE
                -0.000005   -0.000002   -0.177185        1.00 (A.U.)
         DX          DY          DZ         /D/  (DEBYE)
    -1.002871   -0.392218    2.169243    2.421817
 ...... END OF PROPERTY EVALUATION ......
 CPU     0: STEP CPU TIME=     0.01 TOTAL CPU TIME=         12.8 (      0.2 MIN)
 TOTAL WALL CLOCK TIME=         12.8 SECONDS, CPU UTILIZATION IS    99.92%

     -------------------------------------------------
     GMC-PT/GMC-QDPT or general MCSCF input parameters
     -------------------------------------------------
 # of frozen core orbs. =         0 ->         0
 # of doubly occ. orbs. =         1
 # of active      orbs. =         7
 # of virtual     orbs. =        21
 # of active electrons  =         7
 # of states in CI      =         3
 Highest state in CI    =         3
 kstate =  1 1 1
 avecoe =  0.333 0.333 0.333
 State symmetry           = A           
 Assigned symmetry number = 1

 <<<Act. MO sym.: 1111111

 <<<Division of 1-ext.:  0
 <<<Division of 2-ext.:  0

     ------------------------
     Orbital canonicalization
     ------------------------

 MOs are canonicalized for core, virtual, and invariant-active orbital spaces.
 This is a part of the GMC-QDPT calculation.
 SCHWARZ INEQUALITY OVERHEAD:       465 INTEGRALS, T=        0.00
 DIRECT TRANSFORMATION SKIPS AO INTEGRAL STORAGE ON DISK.

 Averaged energy =     -55.670318702

 State #    1  Energy =     -55.802825159  S =  0.500
 State #    2  Energy =     -55.726484461  S =  0.500
 State #    3  Energy =     -55.481646486  S =  0.500

 Orbital energies for filled orbital space
  -15.982717
 Orbital energies for active orbital space
   -1.479531  -1.008889  -0.764857  -0.715320   0.059223
    0.392197   0.209812
 Orbital energies for external orbital space
    0.109759   0.197974   0.277797   0.526502   0.579432
    0.682772   0.880432   1.063694   1.102039   1.221157
    1.300521   1.425455   1.590111   1.673035   1.858402
    1.941845   2.152907   2.238077   2.491030   2.665248
    2.988032

 Zero values mean non-canonical orbitals.
 ... done with orbital canonicalization ...
 CPU     0: STEP CPU TIME=     0.64 TOTAL CPU TIME=         13.4 (      0.2 MIN)
 TOTAL WALL CLOCK TIME=         13.4 SECONDS, CPU UTILIZATION IS    99.93%

     --------------------------------------------
     PARTIAL TWO ELECTRON INTEGRAL TRANSFORMATION
     --------------------------------------------

 NUMBER OF CORE MOLECULAR ORBITALS     =    0
 NUMBER OF OCCUPIED MOLECULAR ORBITALS =    8
 TOTAL NUMBER OF MOLECULAR ORBITALS    =   29
 TOTAL NUMBER OF ATOMIC ORBITALS       =   30
 THRESHOLD FOR KEEPING TRANSFORMED 2E- INTEGRALS = 1.000E-09
 AO INTEGRALS WILL BE CALCULATED IN DIRECT MODE...
 DIRECT TRANSFORMATION SKIPS AO INTEGRAL STORAGE ON DISK.
 SCHWARZ INEQUALITY OVERHEAD:       465 INTEGRALS, T=        0.00

 PLAN A: REQUIREMENTS FOR FULLY IN-MEMORY TRANSFORMATION:
 # OF WORDS AVAILABLE =            100000000
 # OF WORDS NEEDED    =               221798

 PARALLEL ONLY WORKS WITH THE SEGMENTED ALGORITHM.
 ADJUSTING MEMORY TO USE SEGMENTED ALGORITHM.


 PLAN B: REQUIREMENTS FOR THE SEGMENTED TRANSFORMATION:
       MINIMUM=         124148 WORDS FOR 1 MOLECULAR ORBITAL PER PASS
       MAXIMUM=         221798 WORDS FOR ALL MOLECULAR ORBITALS IN 1 PASS
              (          13950 EXTRA WORDS INCLUDES 1 EXTRA ORBITAL/PASS)
 THIS RUN USES=         221798 WORDS,
 DISTRIBUTING   1 PASSES EACH CONTAINING     8 ORBITALS OVER   1 PROCESSORS.

 CHOOSING SEGMENTED PARTIAL TRANSFORMATION...
 DIRECT TRANSFORMATION SKIPS AO INTEGRAL STORAGE ON DISK.
 PASS #   1 TOOK        0.04 SECONDS.
 TOTAL NUMBER OF TRANSFORMED 2E- INTEGRALS KEPT =        29226
 ... END OF INTEGRAL TRANSFORMATION ...
 CPU     0: STEP CPU TIME=     0.04 TOTAL CPU TIME=         13.4 (      0.2 MIN)
 TOTAL WALL CLOCK TIME=         13.4 SECONDS, CPU UTILIZATION IS    99.93%

     --------     ------------------------------------------
     GMC-QDPT     Program written by H.Nakano (Kyushu Univ.)
     --------     ------------------------------------------

 *** Reference space

 Reference type: ORMAS (= Occupation restricted multiple active space)
 # of orbitals          =  7
 # of minimum electrons =  7
 # of maximum electrons =  7
 State symmetry    =    1 (input)
 2*Sz              =    1 (input)
 Spin multiplicity =    2 (input)
 Dimension of reference space =      1225  (from      3432 walks)

 Dimension of reference space =      1225  (from      1225 walks)

 <<<Ionized spaces for Ref-CI:
      0:         1225 /   -1-0:         1960 /  0-1-0:         2891

 ***                    ***
 *** Reference space CI ***
 ***                    ***

 Converged after   33 iterations

 Reference wavefunctions:

 State #    1  Energy =     -55.802825159  S =  0.500

      Det      Coef    Occupancy (Ignoring core)
      ---      ----    --------- --------- -----
        1   -0.956576  11110001110000
       36   -0.183410  11110001101000
      393   -0.051298  10110101010010
      717   -0.079929  11010011100001

 State #    2  Energy =     -55.726484461  S =  0.500

      Det      Coef    Occupancy (Ignoring core)
      ---      ----    --------- --------- -----
        1   -0.188438  11110001110000
       36    0.960280  11110001101000
      142   -0.055728  11101001100100
      463    0.052157  10110101001010

 State #    3  Energy =     -55.481646486  S =  0.500

      Det      Coef    Occupancy (Ignoring core)
      ---      ----    --------- --------- -----
        3    0.054738  11011001110000
       37    0.052734  11101001101000
       71   -0.967053  11110001011000
      122   -0.057134  11010010111000
      177    0.056352  11101001010100
      822    0.080755  11010011001001

 Davidson method: CPU/Wall time =           0.46 /           0.46 sec.

 Oscillator strength (invalid if E(1)/=E(GS)):
 -----------------------------------------
   State                        f
 -----------------------------------------
     2     F(REF-CI)=        0.0011711955
     3     F(REF-CI)=        0.0071594422
 -----------------------------------------

 Dipole moment matrix elements, x, y, z, in A.U.

 Dimension of ionized spaces for PT:
 (N-2) space:         1715 /  (N-1) space:         2842 /  N space:         2891
 (N+1) space:         2842 /  (N+2) space:         1715

 <<<Ionized spaces for internal:
         0:         1225 /      -1-0:         1960 /     0-1-0:         2891
  -1-0-1-0:         2842 / 0-1-0-1-0:         3381

 Diagonal elements of averaged one-particle density matrix:
       2       3       4       5       6       7       8
  0.9918  0.9852  0.9828  0.9871  0.0236  0.0113  0.0181
  0.9854  0.6645  0.6554  0.6583  0.0157  0.0081  0.0126

 Orbital energies:
 -------- Doubly-occupied orbitals (highest several orbs.) -------
             1
 -1.598272D+01
 -------- Active orbitals ----------------------------------------
             2            3            4            5            6
 -1.479531D+00-1.008889D+00-7.648568D-01-7.153196D-01 5.922301D-02
             7            8
  3.921966D-01 2.098119D-01
 -------- External orbitals (lowest several orbs.) ---------------
             9           10           11           12           13
  1.097595D-01 1.979743D-01 2.777973D-01 5.265017D-01 5.794317D-01
            14           15           16           17           18
  6.827723D-01 8.804321D-01 1.063694D+00 1.102039D+00 1.221157D+00

 *** Quasi-degeneracy checking

 === Det (|Ci| > 1.0D-01 and dE < 5.0D-03)

 # of small denominators (single excitations)
 State       dEmin  dE < 5.0D-03  dE < 5.0D-04  dE < 5.0D-05  dE < 5.0D-06
 ----- ----------- ------------- ------------- ------------- -------------
     1    5.00D-03             0             0             0             0
     2    5.00D-03             0             0             0             0
     3    5.00D-03             0             0             0             0

 # of small denominators (double excitations)
 State       dEmin  dE < 5.0D-03  dE < 5.0D-04  dE < 5.0D-05  dE < 5.0D-06
 ----- ----------- ------------- ------------- ------------- -------------
     1    5.00D-03             0             0             0             0
     2    5.00D-03             0             0             0             0
     3    5.00D-03             0             0             0             0

 *** Zeroth-Order Setup (Granovsky's zeroth-order vectors)
 Zeroth-order effective Hamiltonian
  (= Sum_i e(i)*<I|a+(i)a(i)|J> ):
                   1            2            3
     1 -7.111036D+00
     2 -1.555673D-02-7.081761D+00
     3  2.712738D-03 6.390738D-03-6.817451D+00

 Zeroth-order vectors:
 State #    1
       MC st            1           2           3
       Coeff   -9.171D-01  -3.984D-01   1.676D-02
 State #    2
       MC st            2           1           3
       Coeff   -9.169D-01   3.986D-01   1.854D-02
 State #    3
       MC st            3           2           1
       Coeff    9.997D-01   2.369D-02   7.977D-03

 *** GMC-QDPT computation

 (Integral reading:  CPU/Wall time =           0.00 /           0.00 sec.)

 One-external:
   0 -ionized terms: CPU/Wall time =           0.03 /           0.03 sec.
 (-1)-ionized terms: CPU/Wall time =           0.09 /           0.09 sec.
 (+1)-ionized terms: CPU/Wall time =           0.02 /           0.02 sec.
 (+1)-ionized terms: CPU/Wall time =           0.01 /           0.01 sec.
 (+2)-ionized terms: CPU/Wall time =           0.00 /           0.00 sec.

 Internal:
 # of macro loops for internal contribution =         1 (input)
 Loop:    1
 Dimension of internal CISD space     =         0  (after screening)
 Space construction: CPU/Wall time =           0.02 /           0.02 sec.
 Internal terms:     CPU/Wall time =           0.00 /           0.00 sec.

 Two-external:
   0 -ionized terms: CPU/Wall time =           0.06 /           0.06 sec.
 (-1)-ionized terms: CPU/Wall time =           1.00 /           1.00 sec.
 (-2)-ionized terms: CPU/Wall time =           0.17 /           0.17 sec.

 Total time:         CPU/Wall time =           1.40 /           1.40 sec.

 ***                  ***
 *** GMC-QDPT Results ***
 ***                  ***

 Diagonal elements of effective Hamiltonian:
 Heff(  1) =   -55.89225307
 Heff(  2) =   -55.84331488
 Heff(  3) =   -55.59348682

 Off-diagonal elements of effective Hamiltonian:
                   1            2
     2  2.482914D-02
     3  5.262488D-03 3.775085D-03

 ******** GMC-QDPT energies ********
 ----------------------------------------------------------------------------
   State                        1st order                           2nd order
 ----------------------------------------------------------------------------
     1     E(REF-CI)=      -55.8028251586   E(GMC-QDPT2)=      -55.9026813916
     2     E(REF-CI)=      -55.7264844610   E(GMC-QDPT2)=      -55.8330507633
     3     E(REF-CI)=      -55.4816464860   E(GMC-QDPT2)=      -55.5933226123
 ----------------------------------------------------------------------------

 Excitation energies (invalid if E(1)/=E(GS)):
 ----------------------------------------------------------------------------
   State                        1st order                           2nd order
 ----------------------------------------------------------------------------

     TZ Sorted GMC-PT ENERGIES:
         1      -55.9026813916
         2      -55.8330507633
         3      -55.5933226123
     2     E(REF-CI)=        2.0773373 eV   E(GMC-QDPT2)=        1.8947469 eV
     3     E(REF-CI)=        8.7397213 eV   E(GMC-QDPT2)=        8.4180855 eV
 ----------------------------------------------------------------------------

 Main characters of perturbed GMC-QDPT states:

 State #    1  Energy =     -55.902681392  S =  0.500

      Det      Coef    Occupancy (Ignoring core)
      ---      ----    --------- --------- -----
        1    0.959182  11110001110000
       36    0.169379  11110001101000
      393    0.051391  10110101010010
      717    0.079963  11010011100001

 State #    2  Energy =     -55.833050763  S =  0.500

      Det      Coef    Occupancy (Ignoring core)
      ---      ----    --------- --------- -----
        1   -0.174442  11110001110000
       36    0.962865  11110001101000
      142   -0.056096  11101001100100
      463    0.052285  10110101001010

 State #    3  Energy =     -55.593322612  S =  0.500

      Det      Coef    Occupancy (Ignoring core)
      ---      ----    --------- --------- -----
        3    0.054778  11011001110000
       37    0.052743  11101001101000
       71   -0.967020  11110001011000
      122   -0.057174  11010010111000
      177    0.056298  11101001010100
      822    0.080726  11010011001001

 <<<Max |V/de| = 2.929D-02  Thresh = 1.000D+00

 Oscillator strength (invalid if E(1)/=E(GS)):
 ----------------------------------------------------------------------------
   State                        1st order                           2nd order
 ----------------------------------------------------------------------------
     2     F(REF-CI)=        0.0011711955     F(GMC-PT2)=        0.0011295032
     3     F(REF-CI)=        0.0071594422     F(GMC-PT2)=        0.0069807614
 ----------------------------------------------------------------------------

 Dipole moment matrix elements, x, y, z, in A.U.
States    1    1       -0.3936059950       -0.0947612843        0.6442195295
States    1    2       -0.0351335226       -0.0154285490        0.1511940117
States    1    3        0.1617544902       -0.0188693555        0.0855997820
States    2    1       -0.0351335226       -0.0154285490        0.1511940117
States    2    2       -0.2718319727       -0.2688301211        0.3539089570
States    2    3        0.0087959651        0.0684719125        0.0050682757
States    3    1        0.1617544902       -0.0188693555        0.0855997820
States    3    2        0.0087959651        0.0684719125        0.0050682757
States    3    3       -0.6638671438       -0.1157357087        0.2535252711

 Oscillator strength (valid only when positive): 
 ----------------------------------------------------------------------------
  States                        1st order                           2nd order
 ----------------------------------------------------------------------------
  1  1     F(REF-CI)=        0.0000000000     F(GMC-PT2)=        0.0000000000
  1  2     F(REF-CI)=       -0.0011711955     F(GMC-PT2)=       -0.0011295032
  1  3     F(REF-CI)=       -0.0071594422     F(GMC-PT2)=       -0.0069807614
  2  1     F(REF-CI)=        0.0011711955     F(GMC-PT2)=        0.0011295032
  2  2     F(REF-CI)=        0.0000000000     F(GMC-PT2)=        0.0000000000
  2  3     F(REF-CI)=       -0.0007825401     F(GMC-PT2)=       -0.0007657651
  3  1     F(REF-CI)=        0.0071594422     F(GMC-PT2)=        0.0069807614
  3  2     F(REF-CI)=        0.0007825401     F(GMC-PT2)=        0.0007657651
  3  3     F(REF-CI)=        0.0000000000     F(GMC-PT2)=        0.0000000000
 CPU     0: STEP CPU TIME=     1.92 TOTAL CPU TIME=         15.4 (      0.3 MIN)
 TOTAL WALL CLOCK TIME=         15.4 SECONDS, CPU UTILIZATION IS    99.87%

     !!! DIABATIZATION FOR REF CI STATES !!!

 *******************************************************
          $DMO GROUP FOUND IN THE INPUT.
        DIABATIZATION OF ADIABATIC STATES BEGINS.
     PROGRAMMED BY TAO ZENG (CARLETON UNIVERSITY).
               Email: toby.zeng@carleton.ca
     See T. Zeng, J. Chem. Phys. 2017, 146, 144103
 *******************************************************

 *************************************************************************
     STEP 1: TRANSFORMATION OF ADIABATIC STATES TO THE DMO REPRESENTATION
         See Atchity and Ruedenberg, J. Chem. Phys. 1999, 111, 2910
 *************************************************************************

Read in Diabatic Molecualr Orbitals:

                      1          2          3          4          5

    1  N  1  S    0.008609   0.000000   0.000000  -0.013219   0.279491
    2  N  1  S    0.442914  -0.000000   0.000000  -0.184329   0.867803
    3  N  1  S    0.276913   0.000000  -0.000000  -0.288315   0.144236
    4  N  1  X   -0.000000   0.493155  -0.024636  -0.000000  -0.000000
    5  N  1  Y    0.000000   0.024636   0.493155  -0.000000   0.000000
    6  N  1  Z    0.090197   0.000000   0.000000   0.593421   0.705309
    7  N  1  X   -0.000000   0.210628  -0.010522   0.000000   0.000000
    8  N  1  Y    0.000000   0.010522   0.210628  -0.000000  -0.000000
    9  N  1  Z   -0.004381   0.000000   0.000000   0.381592  -0.106092
   10  N  1 XX   -0.000457   0.010719  -0.000535  -0.012387   0.006153
   11  N  1 YY   -0.000457  -0.010719   0.000535  -0.012387   0.006153
   12  N  1 ZZ    0.000914  -0.000000   0.000000   0.024773  -0.012306
   13  N  1 XY    0.000000  -0.000618  -0.012377  -0.000000   0.000000
   14  N  1 XZ   -0.000000   0.026529  -0.001325  -0.000000   0.000000
   15  N  1 YZ    0.000000   0.001325   0.026529  -0.000000   0.000000
   16  H  2  S    0.194462  -0.176074   0.343485   0.112865  -0.523343
   17  H  2  S    0.003574  -0.023812   0.046452   0.024014  -0.054445
   18  H  2  X    0.018760   0.009101   0.022834   0.009336  -0.039151
   19  H  2  Y   -0.032493   0.022287  -0.020044  -0.016171   0.067811
   20  H  2  Z   -0.009251   0.008464  -0.016511   0.018769  -0.010566
   21  H  3  S    0.194462  -0.209430  -0.324227   0.112865  -0.523343
   22  H  3  S    0.003574  -0.028322  -0.043847   0.024014  -0.054445
   23  H  3  X    0.018760   0.006781  -0.023627   0.009336  -0.039151
   24  H  3  Y    0.032493  -0.024174  -0.017723   0.016171  -0.067811
   25  H  3  Z   -0.009251   0.010067   0.015585   0.018769  -0.010566
   26  H  4  S    0.194462   0.385503  -0.019258   0.112865  -0.523343
   27  H  4  S    0.003574   0.052134  -0.002604   0.024014  -0.054445
   28  H  4  X   -0.037519  -0.032295   0.001613  -0.018672   0.078302
   29  H  4  Y    0.000000   0.001067   0.021353  -0.000000   0.000000
   30  H  4  Z   -0.009251  -0.018530   0.000926   0.018769  -0.010566

                      6          7

    1  N  1  S    0.000000  -0.000000
    2  N  1  S    0.000000  -0.000000
    3  N  1  S   -0.000000   0.000000
    4  N  1  X   -0.930415  -0.002083
    5  N  1  Y   -0.002083   0.930415
    6  N  1  Z   -0.000000   0.000000
    7  N  1  X   -0.046866  -0.000105
    8  N  1  Y   -0.000105   0.046866
    9  N  1  Z   -0.000000   0.000000
   10  N  1 XX    0.001538   0.000003
   11  N  1 YY   -0.001538  -0.000003
   12  N  1 ZZ   -0.000000   0.000000
   13  N  1 XY   -0.000004   0.001776
   14  N  1 XZ    0.039985   0.000090
   15  N  1 YZ    0.000090  -0.039985
   16  H  2  S   -0.362630  -0.631354
   17  H  2  S   -0.065964  -0.114846
   18  H  2  X    0.002763  -0.037520
   19  H  2  Y    0.037435   0.040736
   20  H  2  Z    0.001882   0.003276
   21  H  3  S   -0.365454   0.629724
   22  H  3  S   -0.066477   0.114549
   23  H  3  X    0.002595   0.037532
   24  H  3  Y   -0.037617   0.040567
   25  H  3  Z    0.001896  -0.003268
   26  H  4  S    0.728084   0.001630
   27  H  4  S    0.132441   0.000297
   28  H  4  X   -0.062317  -0.000140
   29  H  4  Y    0.000055  -0.024345
   30  H  4  Z   -0.003778  -0.000008

NUMBER OF SUB ACTIVE SPACES:   1
ROTATE ACTIVE MOS TO DMOS IN EACH SUB-SPACE

SPACE  1:

OVERLAP BETWEEN ORTHONORMAL AND PRE-ORTHONORMAL REF. DMOS

             1           2           3           4           5

    1    0.9692003  -0.0204734  -0.0214857  -0.0111452  -0.0028394
    2   -0.0204734   1.0417306  -0.0290691  -0.0437695   0.0879806
    3   -0.0214857  -0.0290691   0.8431644  -0.0203990   0.0172311
    4   -0.0111452  -0.0437695  -0.0203990   0.9916179  -0.0131575
    5   -0.0028394   0.0879806   0.0172311  -0.0131575   1.1957616
    6   -0.0003368   0.0653213  -0.0328838  -0.0663508   0.0851808
    7    0.0030636   0.0074942   0.1171270   0.0158497   0.0443502

             6           7

    1   -0.0003368   0.0030636
    2    0.0653213   0.0074942
    3   -0.0328838   0.1171270
    4   -0.0663508   0.0158497
    5    0.0851808   0.0443502
    6    1.0639390  -0.0105248
    7   -0.0105248   1.0592772
REFERENCE DMOS AFTER ORTHONORMALIZATION:

                      1          2          3          4          5

    1  N  1  S    0.008942  -0.019229  -0.005015  -0.012149   0.236791
    2  N  1  S    0.455792  -0.056411  -0.008258  -0.177686   0.734959
    3  N  1  S    0.282343  -0.015224  -0.003648  -0.288489   0.121250
    4  N  1  X    0.009429   0.525715  -0.046514  -0.038206   0.026998
    5  N  1  Y    0.008442   0.033136   0.472940  -0.001018  -0.041519
    6  N  1  Z    0.101635  -0.022143   0.008811   0.606718   0.600208
    7  N  1  X    0.004224   0.206732  -0.006933   0.005168  -0.011036
    8  N  1  Y    0.005883   0.017322   0.248779   0.006106  -0.005940
    9  N  1  Z    0.000464   0.022237   0.013605   0.386990  -0.088321
   10  N  1 XX   -0.000414   0.009404  -0.000714  -0.012055   0.004348
   11  N  1 YY   -0.000849  -0.011239  -0.000297  -0.013062   0.005977
   12  N  1 ZZ    0.001263   0.001836   0.001011   0.025117  -0.010325
   13  N  1 XY   -0.000375  -0.001059  -0.015224  -0.000443   0.000197
   14  N  1 XZ    0.000558   0.023708   0.000820   0.003464  -0.004344
   15  N  1 YZ    0.001039   0.002597   0.037459   0.001625   0.000796
   16  H  2  S    0.211778  -0.090637   0.497829   0.108180  -0.392257
   17  H  2  S    0.005476  -0.012375   0.069972   0.022789  -0.037107
   18  H  2  X    0.020560   0.013287   0.034540   0.011505  -0.033044
   19  H  2  Y   -0.034056   0.012747  -0.030079  -0.014768   0.052427
   20  H  2  Z   -0.009620   0.008772  -0.019521   0.018769  -0.009401
   21  H  3  S    0.183968  -0.158294  -0.478981   0.062519  -0.420850
   22  H  3  S    0.001333  -0.022057  -0.069984   0.015516  -0.042954
   23  H  3  X    0.018708   0.008694  -0.031734   0.008565  -0.034606
   24  H  3  Y    0.032418  -0.016664  -0.026502   0.012000  -0.054380
   25  H  3  Z   -0.008635   0.011535   0.020215   0.019955  -0.009846
   26  H  4  S    0.210156   0.381094   0.035437   0.174370  -0.515447
   27  H  4  S    0.005095   0.048565   0.005393   0.034315  -0.058038
   28  H  4  X   -0.039631  -0.035012  -0.004503  -0.024188   0.072412
   29  H  4  Y    0.000785   0.002019   0.029104   0.001162   0.000377
   30  H  4  Z   -0.009692  -0.016526   0.000825   0.017953  -0.007404

                      6          7

    1  N  1  S   -0.018779  -0.009254
    2  N  1  S   -0.066856  -0.028783
    3  N  1  S   -0.026800  -0.001332
    4  N  1  X   -0.912857  -0.010199
    5  N  1  Y    0.022076   0.827769
    6  N  1  Z   -0.008903  -0.035408
    7  N  1  X   -0.055759  -0.000977
    8  N  1  Y    0.007552   0.016828
    9  N  1  Z    0.030226  -0.003455
   10  N  1 XX   -0.000254   0.000013
   11  N  1 YY   -0.002058   0.000036
   12  N  1 ZZ    0.002311  -0.000049
   13  N  1 XY   -0.000420   0.003363
   14  N  1 XZ    0.036719   0.000319
   15  N  1 YZ    0.000705  -0.041962
   16  H  2  S   -0.287990  -0.639098
   17  H  2  S   -0.055825  -0.115426
   18  H  2  X    0.005841  -0.038123
   19  H  2  Y    0.028740   0.040102
   20  H  2  Z    0.002600   0.005356
   21  H  3  S   -0.304380   0.661695
   22  H  3  S   -0.057727   0.117022
   23  H  3  X    0.004633   0.040191
   24  H  3  Y   -0.029614   0.043055
   25  H  3  Z    0.003677  -0.005227
   26  H  4  S    0.714436   0.020387
   27  H  4  S    0.128480   0.002518
   28  H  4  X   -0.063905  -0.002576
   29  H  4  Y    0.000610  -0.026244
   30  H  4  Z   -0.000801   0.000079

 -------------------------------------------
       MAXIMIZING MORMO OVERLAP TERM        
 -------------------------------------------
   SWEEP    VALUE       PROGRESS
     0     5.45289
     1     6.90730     1.45440746
     2     6.92745     0.02014984
     3     6.92745     0.00000608
     4     6.92745     0.00000000
     5     6.92745     0.00000000
 THE ROTATION IS DONE
ACTIVE ORBITALS AFTER MORMO:

                      1          2          3          4          5

    1  N  1  S    0.007114  -0.022031  -0.016144  -0.012314   0.167552
    2  N  1  S    0.425068  -0.043713  -0.044287  -0.191053   0.641283
    3  N  1  S    0.342009  -0.002166   0.054002  -0.269829   0.240094
    4  N  1  X    0.011983   0.512679  -0.045510  -0.043199   0.046622
    5  N  1  Y   -0.005909   0.019879   0.397529  -0.019088  -0.033708
    6  N  1  Z    0.083998  -0.043463  -0.009825   0.606189   0.565657
    7  N  1  X    0.003257   0.181695   0.002653   0.050547  -0.052448
    8  N  1  Y    0.020533   0.036117   0.361641   0.029196  -0.013913
    9  N  1  Z    0.032288   0.060171   0.035891   0.386784  -0.038444
   10  N  1 XX    0.006221   0.008862   0.013219  -0.009913  -0.046152
   11  N  1 YY   -0.005951  -0.009763  -0.012190  -0.009577   0.034583
   12  N  1 ZZ   -0.000270   0.000901  -0.001029   0.019490   0.011569
   13  N  1 XY   -0.003519  -0.008162  -0.025824  -0.005881   0.020044
   14  N  1 XZ   -0.003420   0.011680  -0.000004   0.004636   0.027537
   15  N  1 YZ    0.000675  -0.000434   0.024973  -0.003654   0.020246
   16  H  2  S    0.184617  -0.133938   0.363986   0.095839  -0.394968
   17  H  2  S    0.012591  -0.001465   0.184003   0.036829  -0.055733
   18  H  2  X    0.025806  -0.013628   0.041680   0.011553  -0.023120
   19  H  2  Y   -0.012988   0.015147   0.006428  -0.003485   0.033158
   20  H  2  Z   -0.005440   0.016870  -0.009476   0.016422  -0.022980
   21  H  3  S    0.180687  -0.172371  -0.370614   0.082205  -0.447326
   22  H  3  S   -0.001635  -0.023470  -0.183935   0.023982  -0.070818
   23  H  3  X    0.022737  -0.005597  -0.029574   0.012484  -0.008920
   24  H  3  Y    0.022002  -0.013039   0.002604   0.014624  -0.045294
   25  H  3  Z   -0.012934   0.021263   0.024244   0.015964  -0.009337
   26  H  4  S    0.184919   0.388712   0.006298   0.133222  -0.506069
   27  H  4  S    0.001824   0.046866   0.017583   0.040029  -0.072478
   28  H  4  X   -0.032865  -0.041870   0.009987  -0.010090   0.053681
   29  H  4  Y    0.007148   0.015694   0.020988   0.003869  -0.012207
   30  H  4  Z   -0.001986  -0.006790   0.002026   0.022488  -0.012237

                      6          7

    1  N  1  S   -0.092682   0.005219
    2  N  1  S   -0.201762   0.019675
    3  N  1  S    0.164021  -0.060920
    4  N  1  X   -0.866697  -0.026403
    5  N  1  Y    0.026011   0.859596
    6  N  1  Z   -0.004635  -0.051852
    7  N  1  X   -0.145529   0.015139
    8  N  1  Y    0.000358  -0.026759
    9  N  1  Z    0.059111   0.015798
   10  N  1 XX    0.011168  -0.022926
   11  N  1 YY    0.018031   0.023579
   12  N  1 ZZ   -0.029199  -0.000653
   13  N  1 XY   -0.035823   0.049782
   14  N  1 XZ    0.041014   0.003768
   15  N  1 YZ   -0.016089  -0.014042
   16  H  2  S   -0.342449  -0.515361
   17  H  2  S   -0.075102  -0.246628
   18  H  2  X   -0.007477  -0.052661
   19  H  2  Y    0.039365  -0.006665
   20  H  2  Z   -0.021482   0.009372
   21  H  3  S   -0.350586   0.557957
   22  H  3  S   -0.065050   0.253953
   23  H  3  X    0.023712   0.036624
   24  H  3  Y   -0.037092   0.000650
   25  H  3  Z   -0.006251  -0.020735
   26  H  4  S    0.682507   0.031597
   27  H  4  S    0.143417  -0.000410
   28  H  4  X   -0.061373  -0.010427
   29  H  4  Y    0.013112  -0.005055
   30  H  4  Z    0.024309   0.010773

Actually Used Diabatic Molecualr Orbitals:

                      1          2          3          4          5

    1  N  1  S    0.007114  -0.022031  -0.016144  -0.012314   0.167552
    2  N  1  S    0.425068  -0.043713  -0.044287  -0.191053   0.641283
    3  N  1  S    0.342009  -0.002166   0.054002  -0.269829   0.240094
    4  N  1  X    0.011983   0.512679  -0.045510  -0.043199   0.046622
    5  N  1  Y   -0.005909   0.019879   0.397529  -0.019088  -0.033708
    6  N  1  Z    0.083998  -0.043463  -0.009825   0.606189   0.565657
    7  N  1  X    0.003257   0.181695   0.002653   0.050547  -0.052448
    8  N  1  Y    0.020533   0.036117   0.361641   0.029196  -0.013913
    9  N  1  Z    0.032288   0.060171   0.035891   0.386784  -0.038444
[...]
 STATE #  1 &  2'S GMC-PT-LEVEL COUPLING  =       0.060545250       1.647520180
 STATE #  1 &  3'S GMC-PT-LEVEL COUPLING  =       0.018258471       0.496838313
 STATE #  2 &  3'S GMC-PT-LEVEL COUPLING  =      -0.024845742      -0.676087069

 ---------------------------------------
     - ROTATION TO DIABATIC STATES -    
 ---------------------------------------
 ROWS=ADIABATIC, COLUMNS=DIABATIC STATES

             1           2           3

    1   -0.9109725   0.2166524   0.3509855
    2   -0.3607421  -0.0059107  -0.9326469
    3   -0.1999856  -0.9762309   0.0835401

 ---------------------------------------
          - DIABATIC STATES -           
 ---------------------------------------

 State #    1  Energy =     -55.881247448

      Det      Coef        Coefp    Occupancy (Ignoring core)
      ---      ----        ----    --------- --------- -----
        1    0.891209   -0.891209  222+000
       17    0.222793    0.222793  22-+00+
      701   -0.190815   -0.190815  22++00-
        4    0.143187   -0.143187  2-2++00
      176   -0.136417    0.136417  2+2+-00
        6   -0.094730    0.094730  22200+0
      393   -0.058521   -0.058521  202+020
        3    0.055990    0.055990  22-++00
      141   -0.055467   -0.055467  22++-00
      192    0.054542   -0.054542  2+-+-0+
      402    0.053668   -0.053668  2+-+0-+
      704    0.053161   -0.053161  2-+++0-
      351    0.049030    0.049030  22++0-0
       23   -0.048963   -0.048963  2--++0+
        7   -0.047946   -0.047946  22-+0+0
      708    0.047747   -0.047747  2-++0+-
      717   -0.044350   -0.044350  220+002
      386   -0.043986    0.043986  2+2+0-0
      911   -0.042562   -0.042562  2+++-0-
       16    0.041327   -0.041327  222000+
      215   -0.040132   -0.040132  022+200
      706    0.038837    0.038837  22+00+-
      390    0.036091   -0.036091  -+2++-0
      218    0.035160   -0.035160  +-2+-+0
     1051   -0.034768   -0.034768  2+++0--
      702    0.034094    0.034094  22+0+0-
      227   -0.033588   -0.033588  +2-+-0+
       26   -0.032961   -0.032961  22-00++
      212    0.032612    0.032612  +220200
      705   -0.032506   -0.032506  -2+++0-
       51   -0.031978    0.031978  22+-00+
       29   -0.031146   -0.031146  2--+0++
      143   -0.030665   -0.030665  220+200
      122    0.029223    0.029223  +2-200+
       20   -0.028249   -0.028249  22-0+0+
        5    0.026271    0.026271  -22++00
      424   -0.026198   -0.026198  +-2++-0
      773    0.025158   -0.025158  +2-++0-
      159    0.024395   -0.024395  -2++-0+
        8    0.023819   -0.023819  2-2+0+0
      184   -0.023671   -0.023671  -+2+-+0
       38   -0.023325    0.023325  2202+00
      387   -0.023321    0.023321  2+20+-0
      113   -0.021761    0.021761  +-220+0
       76    0.020167    0.020167  2+2-0+0

 State #    2  Energy =     -55.607851753

      Det      Coef        Coefp    Occupancy (Ignoring core)
      ---      ----        ----    --------- --------- -----
       71   -0.889229    0.889229  2+22000
      806   -0.190876   -0.190876  2++200-
       87    0.179727   -0.179727  2+-200+
       74   -0.110888    0.110888  2022+00
       76   -0.104459   -0.104459  2+2-0+0
      386    0.101877   -0.101877  2+2+0-0
       78   -0.079571    0.079571  20220+0
       73    0.073276   -0.073276  2+-2+00
      246   -0.068870   -0.068870  2++2-00
       77   -0.062286    0.062286  2+-20+0
       72   -0.061420   -0.061420  2+2-+00
      813    0.060042   -0.060042  20+20+-
      106   -0.058435   -0.058435  +222000
      122    0.057835    0.057835  +2-200+
       38   -0.057332    0.057332  2202+00
      456    0.053874    0.053874  2++20-0
      822    0.052808   -0.052808  2+02002
      807   -0.047650    0.047650  2++-+0-
      736   -0.046594    0.046594  2+2+00-
       36    0.046579    0.046579  22+2000
       86    0.044822    0.044822  2+2-00+
       99   -0.044600    0.044600  20-20++
      809    0.044506   -0.044506  20+2+0-
      192   -0.042770    0.042770  2+-+-0+
       90    0.041862    0.041862  2+--+0+
      320    0.041612    0.041612  0+22200
      811   -0.041407    0.041407  2++-0+-
      317    0.040581   -0.040581  ++2-200
      111    0.040173   -0.040173  +22-0+0
      248    0.039787   -0.039787  2+02200
      332   -0.038815    0.038815  ++-2-0+
      402   -0.038163    0.038163  2+-+0-+
      810   -0.037584   -0.037584  -++2+0-
      180   -0.037435    0.037435  -+2+200
      177    0.036890   -0.036890  2+20200
      841   -0.034667    0.034667  +2+200-
       93   -0.033264    0.033264  20-2+0+
      911    0.033125    0.033125  2+++-0-
      323   -0.032727    0.032727  +022-+0
       51    0.032326   -0.032326  22+-00+
      176    0.031868   -0.031868  2+2+-00
      316    0.031266    0.031266  ++22-00
        4    0.029552   -0.029552  2-2++00
     1051    0.029257    0.029257  2+++0--
      264    0.028221   -0.028221  -++2-0+
       17   -0.027970   -0.027970  22-+00+
       96    0.026869    0.026869  2+--0++
      878    0.025750    0.025750  ++-2+0-
        6    0.025581   -0.025581  22200+0
      109   -0.025033    0.025033  +-22+00
        3   -0.023735   -0.023735  22-++00
       37    0.023600   -0.023600  22+-+00
      107    0.023204   -0.023204  +22-+00
       54   -0.023167    0.023167  -2+200+
      108    0.022359    0.022359  +2-2+00
        9   -0.021990   -0.021990  -22+0+0
      183   -0.021676    0.021676  202+-+0
      529    0.020715    0.020715  +022+-0

 State #    3  Energy =     -55.839955566

      Det      Coef        Coefp    Occupancy (Ignoring core)
      ---      ----        ----    --------- --------- -----
       36   -0.890942   -0.890942  22+2000
       52   -0.196987    0.196987  220200+
       39   -0.173740   -0.173740  2-+2+00
      246    0.153996    0.153996  2++2-00
       41   -0.130351    0.130351  22+-0+0
      351    0.124661    0.124661  22++0-0
      456    0.067288    0.067288  2++20-0
       38   -0.063454    0.063454  2202+00
      472   -0.060825   -0.060825  2+020-+
      262   -0.058332   -0.058332  2+02-0+
       43   -0.057490   -0.057490  2-+20+0
       37   -0.056173    0.056173  22+-+00
       58    0.055350   -0.055350  2-02+0+
      463    0.054099   -0.054099  20+2020
      367    0.050244   -0.050244  220+0-+
      141    0.047934    0.047934  22++-00
      157    0.047891   -0.047891  220+-0+
       55   -0.045720   -0.045720  220-+0+
       64    0.045698   -0.045698  2-020++
       42    0.044610   -0.044610  22020+0
      106   -0.044071   -0.044071  +222000
       51    0.043418   -0.043418  22+-00+
      701   -0.042857   -0.042857  22++00-
       61   -0.042617   -0.042617  220-0++
      285    0.040431   -0.040431  02+2200
       71   -0.039041    0.039041  2+22000
      142    0.036835    0.036835  22+0200
      145   -0.036719   -0.036719  -2++200
      460   -0.036051   -0.036051  -++2+-0
      297    0.034804   -0.034804  +202-0+
      282    0.034773    0.034773  +2+-200
      288   -0.034121   -0.034121  +-+2-+0
       40   -0.030351    0.030351  -2+2+00
      123    0.028745   -0.028745  +-2200+
      843   -0.025721   -0.025721  +202+0-
       46    0.025657   -0.025657  2-+-++0
      121   -0.024872    0.024872  +22-00+
       53   -0.024858   -0.024858  2-+200+
      494    0.024854   -0.024854  +-+2+-0
      108    0.023979    0.023979  +2-2+00
      254    0.022676   -0.022676  -++2-+0
      457   -0.022368    0.022368  2++-+-0
      148   -0.022305   -0.022305  2-++-+0
      716    0.021597    0.021597  22+0002
      561    0.020678    0.020678  2+++--0

 ---------------------------------------
      - DIABATIC STATES IN CMO -        
 ---------------------------------------

 State #    1  Energy =     -55.881247448

      Det      Coef        Coefp    Occupancy (Ignoring core)
      ---      ----        ----    --------- --------- -----
        1    0.814632   -0.814632  222+000
       36   -0.499587   -0.499587  22+2000
       71   -0.182476    0.182476  2+22000
      717   -0.072490   -0.072490  220+002
      393   -0.046586   -0.046586  202+020
      106   -0.043239   -0.043239  +222000
      142    0.041945    0.041945  22+0200
      179   -0.033681   -0.033681  202+200
      215   -0.032693   -0.032693  022+200
      463    0.030821   -0.030821  20+2020
      143   -0.030222   -0.030222  220+200
        8   -0.029466    0.029466  2-2+0+0
      212    0.029135    0.029135  +220200
      752    0.029129    0.029129  2+-+002
      702    0.028958    0.028958  22+0+0-
      122    0.028925    0.028925  +2-200+
      718   -0.028100    0.028100  2-++002
      704    0.028080   -0.028080  2-+++0-
        3   -0.026701   -0.026701  22-++00
      705   -0.026310   -0.026310  -2+++0-
      249    0.025699   -0.025699  20+2200
        2    0.025449   -0.025449  2220+00
      708    0.024996   -0.024996  2-++0+-
      145   -0.024774   -0.024774  -2++200
       17    0.024485    0.024485  22-+00+
      753   -0.023570   -0.023570  202+002
       51   -0.022792    0.022792  22+-00+
      109   -0.022521    0.022521  +-22+00
      144    0.022509   -0.022509  2-++200
      911   -0.022312   -0.022312  2+++-0-
      390    0.021748   -0.021748  -+2++-0
      157    0.021099   -0.021099  220+-0+
       52   -0.020913    0.020913  220200+
      218    0.020698   -0.020698  +-2+-+0
      227   -0.020616   -0.020616  +2-+-0+
       23   -0.020401   -0.020401  2--++0+

 State #    2  Energy =     -55.607851753

      Det      Coef        Coefp    Occupancy (Ignoring core)
      ---      ----        ----    --------- --------- -----
       71   -0.947626    0.947626  2+22000
        1   -0.190427    0.190427  222+000
      822    0.079622   -0.079622  2+02002
      177    0.059490   -0.059490  2+20200
      122    0.053788    0.053788  +2-200+
       37    0.051134   -0.051134  22+-+00
        3   -0.050850   -0.050850  22-++00
        2   -0.044579    0.044579  2220+00
      107    0.043779   -0.043779  +22-+00
      109   -0.043167    0.043167  +-22+00
        4    0.041247   -0.041247  2-2++00
       36    0.041054    0.041054  22+2000
      320    0.039235    0.039235  0+22200
      180   -0.038657    0.038657  -+2+200
      192   -0.034754    0.034754  2+-+-0+
      317    0.033892   -0.033892  ++2-200
      807   -0.032025    0.032025  2++-+0-
      823   -0.031590    0.031590  20+2002
       72   -0.031071   -0.031071  2+2-+00
      179    0.030007    0.030007  202+200
      111    0.029604   -0.029604  +22-0+0
       54   -0.029597    0.029597  -2+200+
      248    0.028326   -0.028326  2+02200
      911    0.026551    0.026551  2+++-0-
      809    0.026330   -0.026330  20+2+0-
       78   -0.025893    0.025893  20220+0
      810   -0.025752   -0.025752  -++2+0-
        5   -0.025440   -0.025440  -22++00
       75    0.024477    0.024477  -+22+00
      841   -0.024191    0.024191  +2+200-
      332   -0.023819    0.023819  ++-2-0+
       77   -0.023442    0.023442  2+-20+0
      813    0.022798   -0.022798  20+20+-
       90    0.022559    0.022559  2+--+0+
       52    0.022554   -0.022554  220200+
      183   -0.022522    0.022522  202+-+0
       16   -0.022031    0.022031  222000+
      894    0.021874    0.021874  0+22002
       93   -0.021550    0.021550  20-2+0+
       99   -0.021473    0.021473  20-20++
      391    0.020716   -0.020716  2+20020
      323   -0.020656    0.020656  +022-+0

 State #    3  Energy =     -55.839955566

      Det      Coef        Coefp    Occupancy (Ignoring core)
      ---      ----        ----    --------- --------- -----
       36   -0.839424   -0.839424  22+2000
        1   -0.500927    0.500927  222+000
       71    0.064944   -0.064944  2+22000
      463    0.044034   -0.044034  20+2020
      142    0.043976    0.043976  22+0200
      249    0.042848   -0.042848  20+2200
      822   -0.033288    0.033288  2+02002
      285    0.031086   -0.031086  02+2200
      717    0.030233    0.030233  220+002
      282    0.029776    0.029776  +2+-200
      123    0.028958   -0.028958  +-2200+
      393    0.027277    0.027277  202+020
      823    0.027120   -0.027120  20+2002
      157    0.026287   -0.026287  220+-0+
      262   -0.026256   -0.026256  2+02-0+
       58    0.026007   -0.026007  2-02+0+
      108    0.025504    0.025504  +2-2+00
      145   -0.025080   -0.025080  -2++200
      179    0.024649    0.024649  202+200
       55   -0.023547   -0.023547  220-+0+
       38   -0.023339    0.023339  2202+00
       16   -0.022147    0.022147  222000+
      457   -0.021668    0.021668  2++-+-0
      247   -0.021108    0.021108  2++-200
      297    0.020890   -0.020890  +202-0+
      356    0.020867    0.020867  22+0020
      358   -0.020702    0.020702  2-++020
      148   -0.020335   -0.020335  2-++-+0
      288   -0.020116   -0.020116  +-+2-+0
      859    0.020095   -0.020095  02+2002

 ---------------------------------------
    -DIABATIC STATES IN PROTOTYPES-     
 ---------------------------------------

     STATE:    1
 Group Ref#    Coefficients
     1    1    0.911549
     2    2    0.006725
     3    3   -0.008140

WEIGHT OF LISTED PROTOTYPES:   83.10%

     STATE:    2
 Group Ref#    Coefficients
     1    1    0.006798
     2    2    0.901760
     3    3   -0.001191

WEIGHT OF LISTED PROTOTYPES:   81.32%

     STATE:    3
 Group Ref#    Coefficients
     1    1   -0.008144
     2    2   -0.001179
     3    3    0.911040

WEIGHT OF LISTED PROTOTYPES:   83.01%

     DIRECT MAX. DIABATIZATION FINISHED    
 CPU     0: STEP CPU TIME=     0.25 TOTAL CPU TIME=         15.6 (      0.3 MIN)
 TOTAL WALL CLOCK TIME=         15.6 SECONDS, CPU UTILIZATION IS    99.87%

DIABATS FOR SPIN-ORBIT CALCULATION ARE READY

TRANSITION DIPOLES BETWEEN ADIABATS (in A.U.):

STATE PAIR      X         Y         Z
    1    1 -0.393606 -0.094761  0.644220
    2    1 -0.035134 -0.015429  0.151194
    2    2 -0.271832 -0.268830  0.353909
    3    1  0.161754 -0.018869  0.085600
    3    2  0.008796  0.068472  0.005068
    3    3 -0.663867 -0.115736  0.253525


TRANSITION DIPOLES BETWEEN DIABATS (in A.U.):

STATE PAIR      X         Y         Z
    1    1 -0.351446 -0.125388  0.722107
    2    1  0.089989  0.004888 -0.013710
    2    2 -0.719407 -0.105944  0.235330
    3    1 -0.002206 -0.055898  0.006437
    3    2 -0.014605  0.072334 -0.023770
    3    3 -0.258453 -0.247995  0.294217

TRANSITION DIPOLES BETWEEN DIRECT MAX. DIABATS (in A.U.):

STATE PAIR      X         Y         Z
    1    1 -0.351453 -0.125389  0.722108
    2    1  0.090004  0.004888 -0.013690
    2    2 -0.719399 -0.105945  0.235329
    3    1 -0.002204 -0.055901  0.006437
    3    2 -0.014608  0.072333 -0.023770
    3    3 -0.258453 -0.247993  0.294217
 No $TRANST Group Found.
 Quit without doing spin-orbit coupling
 ..... DONE WITH MP2 ENERGY .....
 CPU     0: STEP CPU TIME=     0.01 TOTAL CPU TIME=         15.6 (      0.3 MIN)
 TOTAL WALL CLOCK TIME=         15.6 SECONDS, CPU UTILIZATION IS    99.94%
            100000000  WORDS OF DYNAMIC MEMORY USED
 EXECUTION OF GAMESS TERMINATED NORMALLY Wed Nov 16 18:57:15 2022
 DDI: 715512 bytes (0.7 MB / 0 MWords) used by master data server.

 ----------------------------------------
 CPU timing information for all processes
 ========================================
 0: 15.300 + 0.328 = 15.628
 ----------------------------------------
Note: The following floating-point exceptions are signalling: IEEE_DENORMAL
 ddikick.x: exited gracefully.
unset echo
----- accounting info -----
Files used on the master node io002 were:
-rw-r--r-- 1 bsonghao nooijen   20710 Nov 16 18:57 /scratch/bsonghao/nh3_diabatization_2d_at_mode_7_8_dist-0.3_-0.8.F05
-rw-r--r-- 1 bsonghao nooijen  363520 Nov 16 18:57 /scratch/bsonghao/nh3_diabatization_2d_at_mode_7_8_dist-0.3_-0.8.F09
-rw-r--r-- 1 bsonghao nooijen 1995920 Nov 16 18:57 /scratch/bsonghao/nh3_diabatization_2d_at_mode_7_8_dist-0.3_-0.8.F10
-rw-r--r-- 1 bsonghao nooijen  131264 Nov 16 18:57 /scratch/bsonghao/nh3_diabatization_2d_at_mode_7_8_dist-0.3_-0.8.F13
-rw-r--r-- 1 bsonghao nooijen  180312 Nov 16 18:57 /scratch/bsonghao/nh3_diabatization_2d_at_mode_7_8_dist-0.3_-0.8.F15
-rw-r--r-- 1 bsonghao nooijen       0 Nov 16 18:57 /scratch/bsonghao/nh3_diabatization_2d_at_mode_7_8_dist-0.3_-0.8.F16
-rw-r--r-- 1 bsonghao nooijen    9808 Nov 16 18:57 /scratch/bsonghao/nh3_diabatization_2d_at_mode_7_8_dist-0.3_-0.8.F70
-rw-r--r-- 1 bsonghao nooijen    9808 Nov 16 18:57 /scratch/bsonghao/nh3_diabatization_2d_at_mode_7_8_dist-0.3_-0.8.F71
-rw-r--r-- 1 bsonghao nooijen   19608 Nov 16 18:57 /scratch/bsonghao/nh3_diabatization_2d_at_mode_7_8_dist-0.3_-0.8.F72
-rw-r--r-- 1 bsonghao nooijen   19608 Nov 16 18:57 /scratch/bsonghao/nh3_diabatization_2d_at_mode_7_8_dist-0.3_-0.8.F73
-rw-r--r-- 1 bsonghao nooijen 1920824 Nov 16 18:57 /scratch/bsonghao/nh3_diabatization_2d_at_mode_7_8_dist-0.3_-0.8.F74
-rw-r--r-- 1 bsonghao nooijen       0 Nov 16 18:57 /scratch/bsonghao/nh3_diabatization_2d_at_mode_7_8_dist-0.3_-0.8.F75
-rw-r--r-- 1 bsonghao nooijen   58848 Nov 16 18:57 /scratch/bsonghao/nh3_diabatization_2d_at_mode_7_8_dist-0.3_-0.8.F76
-rw-r--r-- 1 bsonghao nooijen       0 Nov 16 18:57 /scratch/bsonghao/nh3_diabatization_2d_at_mode_7_8_dist-0.3_-0.8.F77
-rw-r--r-- 1 bsonghao nooijen    1864 Nov 16 18:57 /scratch/bsonghao/nh3_diabatization_2d_at_mode_7_8_dist-0.3_-0.8.F78
-rw-r--r-- 1 bsonghao nooijen   39208 Nov 16 18:57 /scratch/bsonghao/nh3_diabatization_2d_at_mode_7_8_dist-0.3_-0.8.F79
-rw-r--r-- 1 bsonghao nooijen     104 Nov 16 18:57 /scratch/bsonghao/nh3_diabatization_2d_at_mode_7_8_dist-0.3_-0.8.F80
-rw-r--r-- 1 bsonghao nooijen   13472 Nov 16 18:57 /scratch/bsonghao/nh3_diabatization_2d_at_mode_7_8_dist-0.3_-0.8.F81
-rw-r--r-- 1 bsonghao nooijen      16 Nov 16 18:57 /scratch/bsonghao/nh3_diabatization_2d_at_mode_7_8_dist-0.3_-0.8.F82
-rw-r--r-- 1 bsonghao nooijen   19216 Nov 16 18:57 /scratch/bsonghao/nh3_diabatization_2d_at_mode_7_8_dist-0.3_-0.8.F83
-rw-r--r-- 1 bsonghao nooijen   29712 Nov 16 18:57 /scratch/bsonghao/nh3_diabatization_2d_at_mode_7_8_dist-0.3_-0.8.F84
-rw-r--r-- 1 bsonghao nooijen  401576 Nov 16 18:57 /scratch/bsonghao/nh3_diabatization_2d_at_mode_7_8_dist-0.3_-0.8.F85
-rw-r--r-- 1 bsonghao nooijen  903672 Nov 16 18:57 /scratch/bsonghao/nh3_diabatization_2d_at_mode_7_8_dist-0.3_-0.8.F86
-rw-r--r-- 1 bsonghao nooijen     656 Nov 16 18:57 /scratch/bsonghao/nh3_diabatization_2d_at_mode_7_8_dist-0.3_-0.8.F87
-rw-r--r-- 1 bsonghao nooijen   43216 Nov 16 18:57 /scratch/bsonghao/nh3_diabatization_2d_at_mode_7_8_dist-0.3_-0.8.F88
-rw-r--r-- 1 bsonghao nooijen     240 Nov 16 18:57 /scratch/bsonghao/nh3_diabatization_2d_at_mode_7_8_dist-0.3_-0.8.F89
-rw-r--r-- 1 bsonghao nooijen       0 Nov 16 18:57 /scratch/bsonghao/nh3_diabatization_2d_at_mode_7_8_dist-0.3_-0.8.F90
-rw-r--r-- 1 bsonghao nooijen   13760 Nov 16 18:57 /scratch/bsonghao/nh3_diabatization_2d_at_mode_7_8_dist-0.3_-0.8.F91
-rw-r--r-- 1 bsonghao nooijen   22776 Nov 16 18:57 /scratch/bsonghao/nh3_diabatization_2d_at_mode_7_8_dist-0.3_-0.8.F92
-rw-r--r-- 1 bsonghao nooijen   23168 Nov 16 18:57 /scratch/bsonghao/nh3_diabatization_2d_at_mode_7_8_dist-0.3_-0.8.F93
-rw-r--r-- 1 bsonghao nooijen   22776 Nov 16 18:57 /scratch/bsonghao/nh3_diabatization_2d_at_mode_7_8_dist-0.3_-0.8.F94
-rw-r--r-- 1 bsonghao nooijen   13760 Nov 16 18:57 /scratch/bsonghao/nh3_diabatization_2d_at_mode_7_8_dist-0.3_-0.8.F95
-rw-r--r-- 1 bsonghao nooijen   29440 Nov 16 18:57 /scratch/bsonghao/nh3_diabatization_2d_at_mode_7_8_dist-0.3_-0.8.F96
-rw-r--r-- 1 bsonghao nooijen    1184 Nov 16 18:57 /scratch/bsonghao/nh3_diabatization_2d_at_mode_7_8_dist-0.3_-0.8.F97
-rw-r--r-- 1 bsonghao nooijen    9808 Nov 16 18:57 /scratch/bsonghao/nh3_diabatization_2d_at_mode_7_8_dist-0.3_-0.8.F98
-rw-r--r-- 1 bsonghao nooijen   30264 Nov 16 18:57 /scratch/bsonghao/nh3_diabatization_2d_at_mode_7_8_dist-0.3_-0.8.F99
ls: No match.
ls: No match.
ls: No match.
Wed 16 Nov 2022 06:57:18 PM EST
0.299u 0.033s 0:19.00 1.6%	0+0k 48+224io 0pf+0w
