----- GAMESS execution script 'rungms' -----
This job is running on host io002
under operating system Linux at Wed 16 Nov 2022 06:45:36 PM EST
Available scratch disk space (Kbyte units) at beginning of the job is
Filesystem       1K-blocks       Used   Available Use% Mounted on
/dev/sdc1      15378471580 3278917120 11318349060  23% /scratch
GAMESS temporary binary files will be written to /scratch/bsonghao
GAMESS supplementary output files will be written to /home/bsonghao/.gamess_ascii_files/267638
Copying input file nh3_diabatization_2d_at_mode_7_8_dist-0.5_0.1.inp to your run's scratch directory...
cp nh3_diabatization_2d_at_mode_7_8_dist-0.5_0.1.inp /scratch/bsonghao/nh3_diabatization_2d_at_mode_7_8_dist-0.5_0.1.F05
unset echo
/home/bjb2chen/gamess/ddikick.x /home/bjb2chen/gamess/gamess.00.x nh3_diabatization_2d_at_mode_7_8_dist-0.5_0.1 -ddi 1 1 io002 -scr /scratch/bsonghao

 Distributed Data Interface kickoff program.
 Initiating 1 compute processes on 1 nodes to run the following command:
 /home/bjb2chen/gamess/gamess.00.x nh3_diabatization_2d_at_mode_7_8_dist-0.5_0.1 

          ******************************************************
          *         GAMESS VERSION = 02 AUG 2018 (R2)         *
          *             FROM IOWA STATE UNIVERSITY             *
          * M.W.SCHMIDT, K.K.BALDRIDGE, J.A.BOATZ, S.T.ELBERT, *
          *   M.S.GORDON, J.H.JENSEN, S.KOSEKI, N.MATSUNAGA,   *
          *          K.A.NGUYEN, S.J.SU, T.L.WINDUS,           *
          *       TOGETHER WITH M.DUPUIS, J.A.MONTGOMERY       *
          *         J.COMPUT.CHEM.  14, 1347-1363(1993)        *
          **************** 64 BIT LINUX VERSION ****************

  SINCE 1993, STUDENTS AND POSTDOCS WORKING AT IOWA STATE UNIVERSITY
  AND ALSO IN THEIR VARIOUS JOBS AFTER LEAVING ISU HAVE MADE IMPORTANT
  CONTRIBUTIONS TO THE CODE:
     IVANA ADAMOVIC, CHRISTINE AIKENS, YURI ALEXEEV, POOJA ARORA,
     ANDREY ASADCHEV, ROB BELL, PRADIPTA BANDYOPADHYAY, JONATHAN BENTZ,
     BRETT BODE, KURT BRORSEN, CALEB CARLIN, GALINA CHABAN, WEI CHEN,
     CHEOL HO CHOI, PAUL DAY, ALBERT DEFUSCO, NUWAN DESILVA, TIM DUDLEY,
     DMITRI FEDOROV, ALEX FINDLATER, GRAHAM FLETCHER, MARK FREITAG,
     KURT GLAESEMANN, ANASTASIA GUININA,
     DAN KEMP, GRANT MERRILL, NORIYUKI MINEZAWA, JONATHAN MULLIN,
     TAKESHI NAGATA, SEAN NEDD, HEATHER NETZLOFF, BOSILJKA NJEGIC, RYAN OLSON,
     MIKE PAK, BUU PHAM,
     SPENCER PRUITT, LUKE ROSKOP, JIM SHOEMAKER, LYUDMILA SLIPCHENKO,
     TONY SMITH, SAROM SOK LEANG, JIE SONG, TETSUYA TAKETSUGU, SIMON WEBB,
     PENG XU, SOOHAENG YOO, FEDERICO ZAHARIEV

  ADDITIONAL CODE HAS BEEN PROVIDED BY COLLABORATORS IN OTHER GROUPS:
     IOWA STATE UNIVERSITY:
          JOE IVANIC, AARON WEST, LAIMUTIS BYTAUTAS, KLAUS RUEDENBERG
     UNIVERSITY OF TOKYO: KIMIHIKO HIRAO, TAKAHITO NAKAJIMA,
          TAKAO TSUNEDA, MUNEAKI KAMIYA, SUSUMU YANAGISAWA,
          KIYOSHI YAGI, MAHITO CHIBA, SEIKEN TOKURA, NAOAKI KAWAKAMI
     UNIVERSITY OF AARHUS: FRANK JENSEN
     UNIVERSITY OF IOWA: VISVALDAS KAIRYS, HUI LI
     NATIONAL INST. OF STANDARDS AND TECHNOLOGY: WALT STEVENS, DAVID GARMER
     UNIVERSITY OF PISA: BENEDETTA MENNUCCI, JACOPO TOMASI
     UNIVERSITY OF MEMPHIS: HENRY KURTZ, PRAKASHAN KORAMBATH
     UNIVERSITY OF ALBERTA: TOBY ZENG, MARIUSZ KLOBUKOWSKI
     UNIVERSITY OF NEW ENGLAND: MARK SPACKMAN
     MIE UNIVERSITY: HIROAKI UMEDA
     NAT. INST. OF ADVANCED INDUSTRIAL SCIENCE AND TECHNOLOGY: KAZUO KITAURA
     MICHIGAN STATE UNIVERSITY:
          KAROL KOWALSKI, MARTA WLOCH, JEFFREY GOUR, JESSE LUTZ,
          WEI LI, JUN SHEN, J. EMILIANO DEUSTUA, PIOTR PIECUCH
     UNIVERSITY OF MINNESOTA:
          YINAN SHU
     UNIVERSITY OF SILESIA: MONIKA MUSIAL, STANISLAW KUCHARSKI
     FACULTES UNIVERSITAIRES NOTRE-DAME DE LA PAIX:
          OLIVIER QUINET, BENOIT CHAMPAGNE
     UNIVERSITY OF CALIFORNIA - SANTA BARBARA: BERNARD KIRTMAN
     INSTITUTE FOR MOLECULAR SCIENCE:
          KAZUYA ISHIMURA, MICHIO KATOUDA, AND SHIGERU NAGASE
     UNIVERSITY OF NOTRE DAME: ANNA POMOGAEVA, DAN CHIPMAN
     KYUSHU UNIVERSITY:
          HARUYUKI NAKANO,
          FENG LONG GU, JACEK KORCHOWIEC, MARCIN MAKOWSKI, AND YURIKO AOKI,
          HIROTOSHI MORI AND EISAKU MIYOSHI
     PENNSYLVANIA STATE UNIVERSITY:
          TZVETELIN IORDANOV, CHET SWALINA, JONATHAN SKONE,
          SHARON HAMMES-SCHIFFER
     WASEDA UNIVERSITY:
          MASATO KOBAYASHI, TOMOKO AKAMA, TSUGUKI TOUMA,
          TAKESHI YOSHIKAWA, YASUHIRO IKABATA, JUNJI SEINO,
          YUYA NAKAJIMA, HIROMI NAKAI
     NANJING UNIVERSITY: SHUHUA LI
     UNIVERSITY OF NEBRASKA:
          PEIFENG SU, DEJUN SI, NANDUN THELLAMUREGE, YALI WANG, HUI LI
     UNIVERSITY OF ZURICH: ROBERTO PEVERATI, KIM BALDRIDGE
     N. COPERNICUS UNIVERSITY AND JACKSON STATE UNIVERSITY:
          MARIA BARYSZ
     UNIVERSITY OF COPENHAGEN: Jimmy Kromann, CASPER STEINMANN
     TOKYO INSTITUTE OF TECHNOLOGY: HIROYA NAKATA
     NAGOYA UNIVERSITY: YOSHIO NISHIMOTO, STEPHAN IRLE
     MOSCOW STATE UNIVERSITY: VLADIMIR MIRONOV

 EXECUTION OF GAMESS BEGUN Wed Nov 16 18:45:36 2022

            ECHO OF THE FIRST FEW INPUT CARDS -
 INPUT CARD> $system kdiag=3 mwords=100 memddi=1000 parall=.t. $end                         
 INPUT CARD> $contrl runtyp=energy ispher=1 $end                                            
 INPUT CARD> $contrl icut=9 itol=20 inttyp=rysquad qmttol=1.0d-05 nosym=1 $end              
 INPUT CARD> $scf    npunch=2 conv=1.0d-06 dirscf=.t.      $end                             
 INPUT CARD> $contrl scftyp=mcscf  mult=2 maxit=200 icharg=1 mplevl=2 $end                  
 INPUT CARD> $guess  guess=moread norb=29 purify=.t. $end                                   
 INPUT CARD> $basis  gbasis=ccd $end                                                        
 INPUT CARD> $mcscf  cistep=gmcci fullnr=.t. finci=mos                                      
 INPUT CARD>         acurcy=1.d-6 maxit=100 $end                                            
 INPUT CARD> $trans  dirtrf=.t. $end                                                        
 INPUT CARD> $mrmp   mrpt=gmcpt rdvecs=.f. $end                                             
 INPUT CARD> $gmcpt  nmofzc=0 nmodoc=1 nmoact=7 nelact=7 stsym(1)=A                         
 INPUT CARD>         reftyp=ormas nspace=1 mstart(1)=2 mine(1)=7 maxe(1)=7                  
 INPUT CARD>         kstate(1)=1,1,1                                                        
 INPUT CARD>         wstate(1)=1,1,1                                                        
 INPUT CARD>         iwgt=0 thrwgt=-1.0 krot=.f. kszdoe=.f. knospn=.f.                      
 INPUT CARD>         thrde=-1.0 edshft=0.02 $end                                            
 INPUT CARD> $data                                                                          
 INPUT CARD> NH3+ 3 states calculation at NH3 structure.                                    
 INPUT CARD> c1                                                                             
 INPUT CARD>N 7.0 -0.006228917999999998 0.031144515 -0.1693807382                           
 INPUT CARD>H 1.0 -0.60547679 0.8102398268000001 0.12895810110000003                        
 INPUT CARD>H 1.0 -0.22335020700000002 -0.8781246758000001 0.35756547410000006              
 INPUT CARD>H 1.0 0.915379498 -0.364878718 0.28285793610000004                              
 INPUT CARD>$end                                                                            
 INPUT CARD>--- OPTIMIZED RHF      MO-S --- GENERATED AT Mon Nov 14 16:47:08 2022           
 INPUT CARD>E=      -56.3825050291, E(NUC)=   11.8429239490                                 
 INPUT CARD> $VEC                                                                           
 INPUT CARD> 1  1-1.00134066E+00-2.25158504E-03 3.44925845E-03 0.00000000E+00 0.00000000E+00
 INPUT CARD> 1  2-2.13170927E-03 0.00000000E+00 0.00000000E+00 6.57129898E-04-6.87950443E-05
 INPUT CARD> 1  3-6.87950443E-05 1.37590089E-04 0.00000000E+00 0.00000000E+00 0.00000000E+00
 INPUT CARD> 1  4 3.25502815E-04-4.84772356E-04 3.62525460E-04-6.27912517E-04-3.45956485E-04
 INPUT CARD> 1  5 3.25502815E-04-4.84772356E-04 3.62525460E-04 6.27912517E-04-3.45956485E-04
 INPUT CARD> 1  6 3.25502815E-04-4.84772356E-04-7.25050921E-04 0.00000000E+00-3.45956485E-04
 INPUT CARD> 2  1 1.31286642E-02-4.05911371E-01-2.82090992E-01 0.00000000E+00 0.00000000E+00
 INPUT CARD> 2  2-7.71489043E-02 0.00000000E+00 0.00000000E+00 9.73717494E-03 6.62450916E-04
 INPUT CARD> 2  3 6.62450916E-04-1.32490183E-03 0.00000000E+00 0.00000000E+00 0.00000000E+00
 INPUT CARD> 2  4-1.96090317E-01-1.96656153E-02-1.74855877E-02 3.02859263E-02 8.68214399E-03
 INPUT CARD> 2  5-1.96090317E-01-1.96656153E-02-1.74855877E-02-3.02859263E-02 8.68214399E-03
 INPUT CARD> 2  6-1.96090317E-01-1.96656153E-02 3.49711754E-02 0.00000000E+00 8.68214399E-03
 INPUT CARD> 3  1 0.00000000E+00 0.00000000E+00 0.00000000E+00 4.48608762E-01 0.00000000E+00
 INPUT CARD> 3  2 0.00000000E+00 2.18692520E-01 0.00000000E+00 0.00000000E+00 1.30198027E-02
 INPUT CARD> 3  3-1.30198027E-02 0.00000000E+00 0.00000000E+00 2.71832968E-02 0.00000000E+00
 INPUT CARD> 3  4-1.85332726E-01-7.03958951E-02 8.47929477E-03 1.95242443E-02 8.32835058E-03
 INPUT CARD> 3  5-1.85332726E-01-7.03958951E-02 8.47929477E-03-1.95242443E-02 8.32835058E-03
 INPUT CARD> 3  6 3.70665453E-01 1.40791790E-01-2.53376884E-02 0.00000000E+00-1.66567012E-02
 INPUT CARD> 4  1 0.00000000E+00 0.00000000E+00 0.00000000E+00 0.00000000E+00 4.48608762E-01
 INPUT CARD> 4  2 0.00000000E+00 0.00000000E+00 2.18692520E-01 0.00000000E+00 0.00000000E+00
 INPUT CARD> 4  3 0.00000000E+00 0.00000000E+00-1.50339731E-02 0.00000000E+00 2.71832968E-02
 INPUT CARD> 4  4 3.21005698E-01 1.21929267E-01 1.95242443E-02-1.40653607E-02-1.44251263E-02
  100000000 WORDS OF MEMORY AVAILABLE

     BASIS OPTIONS
     -------------
     GBASIS=CCD          IGAUSS=       0      POLAR=NONE    
     NDFUNC=       0     NFFUNC=       0     DIFFSP=       F
     NPFUNC=       0      DIFFS=       F     BASNAM=        


     RUN TITLE
     ---------
  NH3+ 3 states calculation at NH3 structure.                                    

 THE POINT GROUP OF THE MOLECULE IS C1      
 THE ORDER OF THE PRINCIPAL AXIS IS     0

 ATOM      ATOMIC                      COORDINATES (BOHR)
           CHARGE         X                   Y                   Z
 N           7.0    -0.0117709482        0.0588545994       -0.3200831828
 H           1.0    -1.1441852250        1.5311312570        0.2436954750
 H           1.0    -0.4220706905       -1.6594150203        0.6757007687
 H           1.0     1.7298164260       -0.6895207958        0.5345239927

          INTERNUCLEAR DISTANCES (ANGS.)
          ------------------------------

                1 N          2 H          3 H          4 H     

   1 N       0.0000000    1.0271775 *  1.0731190 *  1.1003255 *
   2 H       1.0271775 *  0.0000000    1.7460976 *  1.9281060 *
   3 H       1.0731190 *  1.7460976 *  0.0000000    1.2512825 *
   4 H       1.1003255 *  1.9281060 *  1.2512825 *  0.0000000  

  * ... LESS THAN  3.000


     ATOMIC BASIS SET
     ----------------
 THE CONTRACTED PRIMITIVE FUNCTIONS HAVE BEEN UNNORMALIZED
 THE CONTRACTED BASIS FUNCTIONS ARE NOW NORMALIZED TO UNITY

  SHELL TYPE  PRIMITIVE        EXPONENT          CONTRACTION COEFFICIENT(S)

 N         

      1   S       1          9046.0000000    0.000699617413
      1   S       2          1357.0000000    0.005386054630
      1   S       3           309.3000000    0.027391021189
      1   S       4            87.7300000    0.103150591982
      1   S       5            28.5600000    0.278570663317
      1   S       6            10.2100000    0.448294849454
      1   S       7             3.8380000    0.278085928395
      1   S       8             0.7466000    0.015431561233

      2   S       9          9046.0000000   -0.000304990096
      2   S      10          1357.0000000   -0.002408026379
      2   S      11           309.3000000   -0.011944448725
      2   S      12            87.7300000   -0.048925992909
      2   S      13            28.5600000   -0.134472724725
      2   S      14            10.2100000   -0.315112577700
      2   S      15             3.8380000   -0.242857832550
      2   S      16             0.7466000    1.094382206854

      3   S      17             0.2248000    1.000000000000

      4   P      18            13.5500000    0.058905676772
      4   P      19             2.9170000    0.320461106714
      4   P      20             0.7973000    0.753042061792

      5   P      21             0.2185000    1.000000000000

      6   D      22             0.8170000    1.000000000000

 H         

      7   S      23            13.0100000    0.033498726390
      7   S      24             1.9620000    0.234800801174
      7   S      25             0.4446000    0.813682957883

      8   S      26             0.1220000    1.000000000000

      9   P      27             0.7270000    1.000000000000

 H         

     10   S      28            13.0100000    0.033498726390
     10   S      29             1.9620000    0.234800801174
     10   S      30             0.4446000    0.813682957883

     11   S      31             0.1220000    1.000000000000

     12   P      32             0.7270000    1.000000000000

 H         

     13   S      33            13.0100000    0.033498726390
     13   S      34             1.9620000    0.234800801174
     13   S      35             0.4446000    0.813682957883

     14   S      36             0.1220000    1.000000000000

     15   P      37             0.7270000    1.000000000000

 TOTAL NUMBER OF BASIS SET SHELLS             =   15
 NUMBER OF CARTESIAN GAUSSIAN BASIS FUNCTIONS =   30
 NOTE: THIS RUN WILL RESTRICT THE MO VARIATION SPACE TO SPHERICAL HARMONICS.
 THE NUMBER OF ORBITALS KEPT IN THE VARIATIONAL SPACE WILL BE PRINTED LATER.
 NUMBER OF ELECTRONS                          =    9
 CHARGE OF MOLECULE                           =    1
 SPIN MULTIPLICITY                            =    2
 NUMBER OF OCCUPIED ORBITALS (ALPHA)          =    5
 NUMBER OF OCCUPIED ORBITALS (BETA )          =    4
 TOTAL NUMBER OF ATOMS                        =    4
 THE NUCLEAR REPULSION ENERGY IS       11.4249980758

     $CONTRL OPTIONS
     ---------------
 SCFTYP=MCSCF        RUNTYP=ENERGY       EXETYP=RUN     
 MPLEVL=       2     CITYP =NONE         CCTYP =NONE         VBTYP =NONE    
 DFTTYP=NONE         TDDFT =NONE    
 MULT  =       2     ICHARG=       1     NZVAR =       0     COORD =UNIQUE  
 PP    =NONE         RELWFN=NONE         LOCAL =NONE         NUMGRD=       F
 ISPHER=       1     NOSYM =       1     MAXIT =     200     UNITS =ANGS    
 PLTORB=       F     MOLPLT=       F     AIMPAC=       F     FRIEND=        
 NPRINT=       7     IREST =       0     GEOM  =INPUT   
 NORMF =       0     NORMP =       0     ITOL  =      20     ICUT  =       9
 INTTYP=RYSQUAD      GRDTYP=BEST         QMTTOL= 1.0E-05

     $SYSTEM OPTIONS
     ---------------
  REPLICATED MEMORY=   100000000 WORDS (ON EVERY NODE).
 DISTRIBUTED MEMDDI=        1000 MILLION WORDS IN AGGREGATE,
 MEMDDI DISTRIBUTED OVER   1 PROCESSORS IS  1000000000 WORDS/PROCESSOR.
 TOTAL MEMORY REQUESTED ON EACH PROCESSOR=  1100000000 WORDS.
 TIMLIM=      525600.00 MINUTES, OR     365.0 DAYS.
 PARALL= T  BALTYP=  DLB     KDIAG=    3  COREFL= F
 MXSEQ2=     300 MXSEQ3=     150  mem10=         0

          ----------------
          PROPERTIES INPUT
          ----------------

     MOMENTS            FIELD           POTENTIAL          DENSITY
 IEMOM =       1   IEFLD =       0   IEPOT =       0   IEDEN =       0
 WHERE =COMASS     WHERE =NUCLEI     WHERE =NUCLEI     WHERE =NUCLEI  
 OUTPUT=BOTH       OUTPUT=BOTH       OUTPUT=BOTH       OUTPUT=BOTH    
 IEMINT=       0   IEFINT=       0                     IEDINT=       0
                                                       MORB  =       0

     -------------------------------
     INTEGRAL TRANSFORMATION OPTIONS
     -------------------------------
     NWORD  =            0
     CUTOFF = 1.0E-09     MPTRAN =       0
     DIRTRF =       T     AOINTS =DUP     

          ----------------------
          MCSCF INPUT PARAMETERS
          ----------------------
 CONVERGER SELECTION: FOCAS = F  SOSCF = F  FULLNR = T  QUD = F  JACOBI = F
 SECULAR EQUATION METHOD CISTEP = GMCCI   
 --- GENERAL INPUT OPTIONS:
 MAXIT =     100  MICIT =       1  ACURCY= 1.000E-06
 DAMP  =   0.000  CANONC=       T  ENGTOL= 1.000E-10
 EKT   =       F  NPUNCH=       2  NWORD =         0
 REGENERATE CI AFTER CONVERGENCE = NONE    
 DIABATIZATION AFTER CONVERGENCE =        F
 --- INPUT FOR FULLNR CONVERGER:
 METHOD=DM2       FORS  =       F  DROPC =       T
 LINSER=       F  FCORE =       F  NORB  =      30

          ----------------------
          INTEGRAL INPUT OPTIONS
          ----------------------
 NOPK  =       1 NORDER=       0 SCHWRZ=       T

 ------------------------------------------
 MULTIREFERENCE PERTURBATION THEORY CONTROL
 ------------------------------------------
 MRPT=GMCPT    READ CONVERGED MCSCF VECTORS= F


     ------------------------------------------
     THE POINT GROUP IS C1 , NAXIS= 1, ORDER= 1
     ------------------------------------------

 -- VARIATIONAL SPACE WILL BE RESTRICTED TO PURE SPHERICAL HARMONICS ONLY --
 AFTER EXCLUDING CONTAMINANT COMBINATIONS FROM THE CARTESIAN GAUSSIAN BASIS
 SET, THE NUMBER OF SPHERICAL HARMONICS KEPT IN THE VARIATION SPACE IS   29

     DIMENSIONS OF THE SYMMETRY SUBSPACES ARE
 A   =   29

 ..... DONE SETTING UP THE RUN .....
 CPU     0: STEP CPU TIME=     0.03 TOTAL CPU TIME=          0.0 (      0.0 MIN)
 TOTAL WALL CLOCK TIME=          0.0 SECONDS, CPU UTILIZATION IS    75.00%

          ********************
          1 ELECTRON INTEGRALS
          ********************
 TIME TO DO   DIPOLE INTEGRALS=      0.01
 ...... END OF ONE-ELECTRON INTEGRALS ......
 CPU     0: STEP CPU TIME=     0.01 TOTAL CPU TIME=          0.0 (      0.0 MIN)
 TOTAL WALL CLOCK TIME=          0.0 SECONDS, CPU UTILIZATION IS   100.00%

          -------------
          GUESS OPTIONS
          -------------
          GUESS =MOREAD            NORB  =      29          NORDER=       0
          MIX   =       F          PRTMO =       F          PUNMO =       F
          TOLZ  = 1.0E-08          TOLE  = 1.0E-05
          SYMDEN=       F          PURIFY=       T

 INITIAL GUESS ORBITALS GENERATED BY MOREAD   ROUTINE.

 STATISTICS FOR GENERATION OF SYMMETRY ORBITAL -Q- MATRIX
 NUMBER OF CARTESIAN ATOMIC ORBITALS=         30
 NUMBER OF SPHERICAL CONTAMINANTS DROPPED=     1
 NUMBER OF LINEARLY DEPENDENT MOS DROPPED=     0
 TOTAL NUMBER OF MOS IN VARIATION SPACE=      29
 ORBITAL PURIFICATION WILL OCCUR

 SYMMETRIES FOR INITIAL GUESS ORBITALS FOLLOW.   BOTH SET(S).
     5 ORBITALS ARE OCCUPIED (    1 CORE ORBITALS).
     1=A        2=A        3=A        4=A        5=A        6=A        7=A   
     8=A        9=A       10=A       11=A       12=A       13=A       14=A   
    15=A       16=A       17=A       18=A       19=A       20=A       21=A   
    22=A       23=A       24=A       25=A       26=A       27=A       28=A   
    29=A   
 ...... END OF INITIAL ORBITAL SELECTION ......
 CPU     0: STEP CPU TIME=     0.01 TOTAL CPU TIME=          0.0 (      0.0 MIN)
 TOTAL WALL CLOCK TIME=          0.1 SECONDS, CPU UTILIZATION IS   100.00%

                    ----------------------
                    AO INTEGRAL TECHNOLOGY
                    ----------------------
     S,P,L SHELL ROTATED AXIS INTEGRALS, REPROGRAMMED BY
        KAZUYA ISHIMURA (IMS) AND JOSE SIERRA (SYNSTAR).
     S,P,D,L SHELL ROTATED AXIS INTEGRALS PROGRAMMED BY
        KAZUYA ISHIMURA (INSTITUTE FOR MOLECULAR SCIENCE).
     S,P,D,F,G SHELL TO TOTAL QUARTET ANGULAR MOMENTUM SUM 5,
        ERIC PROGRAM BY GRAHAM FLETCHER (ELORET AND NASA ADVANCED
        SUPERCOMPUTING DIVISION, AMES RESEARCH CENTER).
     S,P,D,F,G,L SHELL GENERAL RYS QUADRATURE PROGRAMMED BY
        MICHEL DUPUIS (PACIFIC NORTHWEST NATIONAL LABORATORY).

          --------------------
          2 ELECTRON INTEGRALS
          --------------------

 DIRECT SCF METHOD SKIPS INTEGRAL STORAGE ON DISK.
 DIRECT TRANSFORMATION SKIPS AO INTEGRAL STORAGE ON DISK.
  ...... END OF TWO-ELECTRON INTEGRALS .....
 STEP CPU TIME =     0.02 TOTAL CPU TIME =          0.1 (      0.0 MIN)
 TOTAL WALL CLOCK TIME=          0.1 SECONDS, CPU UTILIZATION IS    87.50%
 DDI: Creating Array [0] - 900 x 36 = 32400 words.
 DDI: Creating Array [1] - 21 x 288 = 6048 words.
 DDI: Creating Array [2] - 36 x 36 = 1296 words.
 DDI: Creating Array [3] - 465 x 36 = 16740 words.

          -----------------
          MCSCF CALCULATION
          -----------------

 ----- NUCLEAR ENERGY ----- =        11.4249980758

     -------------------------------------------------
     GMC-PT/GMC-QDPT or general MCSCF input parameters
     -------------------------------------------------
 # of frozen core orbs. =         0 ->         0
 # of doubly occ. orbs. =         1
 # of active      orbs. =         7
 # of virtual     orbs. =        21
 # of active electrons  =         7
 # of states in CI      =         3
 Highest state in CI    =         3
 kstate =  1 1 1
 avecoe =  0.333 0.333 0.333
 State symmetry           = A           
 Assigned symmetry number = 1

 <<<Act. MO sym.: 1111111

 <<<Division of 1-ext.:  0
 <<<Division of 2-ext.:  0

 *** Reference space

 Reference type: ORMAS (= Occupation restricted multiple active space)
 # of orbitals          =  7
 # of minimum electrons =  7
 # of maximum electrons =  7
 State symmetry    =    1 (input)
 2*Sz              =    1 (input)
 Spin multiplicity =    2 (input)
 Dimension of reference space =      1225  (from      3432 walks)

 Dimension of reference space =      1225  (from      1225 walks)

 <<<Ionized spaces for Ref-CI:
      0:         1225 /   -1-0:         1960 /  0-1-0:         2891

 EVALUATING EXCHANGE INTEGRALS FOR DIRECT INTEGRAL TRANSFORMATION
 SCHWARZ INEQUALITY OVERHEAD:       465 INTEGRALS, T=        0.00

     --------------------------------------------
     PARTIAL TWO ELECTRON INTEGRAL TRANSFORMATION
     --------------------------------------------

 NUMBER OF CORE MOLECULAR ORBITALS     =    1
 NUMBER OF OCCUPIED MOLECULAR ORBITALS =    8
 TOTAL NUMBER OF MOLECULAR ORBITALS    =   29
 TOTAL NUMBER OF ATOMIC ORBITALS       =   30
 THRESHOLD FOR KEEPING TRANSFORMED 2E- INTEGRALS = 1.000E-09

 -------------------------------     ------------------------------
 DISTRIBUTED DATA TRANSFORMATION     PROGRAM WRITTEN BY G. FLETCHER
 -------------------------------     ------------------------------

 THE DISTRIBUTED MEMORY REQUIRED FOR THIS STEP IS MEMDDI=         1 MWORDS
 CREATING DISTRIBUTED STORAGE FOR [VIR OCC|VIR OCC] INTEGRALS
 CREATING DISTRIBUTED STORAGE FOR [VIR OCC|OCC OCC] INTEGRALS
 CREATING DISTRIBUTED STORAGE FOR [OCC OCC|OCC OCC] INTEGRALS
 CREATING DISTRIBUTED STORAGE FOR [VIR VIR|OCC OCC] INTEGRALS
 FOR    1 PROCESSORS, THE REPLICATED MEMORY NEEDED IS       73700 WORDS.
 SCHWARZ INEQUALITY OVERHEAD:       465 INTEGRALS, T=        0.00

      DIRECT 4-INDEX TRANSFORMATION 
      SCHWARZ INEQUALITY TEST SKIPPED          0 INTEGRAL BLOCKS
 ----- FROZEN CORE ENERGY =       -47.7104937464
 ... END OF INTEGRAL TRANSFORMATION ...
 CPU     0: STEP CPU TIME=     0.21 TOTAL CPU TIME=          0.3 (      0.0 MIN)
 TOTAL WALL CLOCK TIME=          0.3 SECONDS, CPU UTILIZATION IS    93.33%

     --------------------------------     -----------------------------
     MCHF NEWTON-RAPHSON OPTIMIZATION     CODE WRITTEN BY MICHEL DUPUIS
     --------------------------------     -----------------------------
     PARALLEL VERSION WRITTEN BY G. FLETCHER (ELORET)
     NASA ADVANCED SUPERCOMPUTING DIVISION, AMES RESEARCH CENTER

 NUMBER OF INDEPENDENT ORBITAL ROTATION PARAMETERS =   175
 ..... DONE SOLVING NEWTON-RAPHSON EQUATIONS .....
 CPU     0: STEP CPU TIME=     0.93 TOTAL CPU TIME=          1.2 (      0.0 MIN)
 TOTAL WALL CLOCK TIME=          1.2 SECONDS, CPU UTILIZATION IS   100.00%
 ..... DONE WITH NTN-RPH ORBITAL ROTATIONS ..... 
 CPU     0: STEP CPU TIME=     0.00 TOTAL CPU TIME=          1.2 (      0.0 MIN)
 TOTAL WALL CLOCK TIME=          1.2 SECONDS, CPU UTILIZATION IS   100.00%
 MAXIMUM MEMORY USED BY NTN-RPH CODE WAS     57645 WORDS.

 ITER     TOTAL ENERGY      DEL(E)  LAGRANGIAN ASYMMETRY   SQCDF  MICIT   DAMP
   1      -55.638435856 -0.638435856  0.119979   12    5 1.374E-01  1   0.0000
   2      -55.682923563 -0.044487707  0.021916   12    5 4.518E-01  1   0.0000
   3      -55.717008134 -0.034084571  0.012763   11    6 2.232E-01  1   0.0233
   4      -55.731673635 -0.014665501  0.004348   11    6 4.231E-02  1   0.0048
   5      -55.733560448 -0.001886814  0.000751   12    5 1.246E-03  1   0.0000
   6      -55.733616450 -0.000056002  0.000248   23    5 1.103E-04  1   0.0000
   7      -55.733622356 -0.000005906  0.000111   23    5 1.815E-05  1   0.0000
   8      -55.733623385 -0.000001029  0.000054   23    5 3.528E-06  1   0.0000
   9      -55.733623592 -0.000000207  0.000027   23    5 7.884E-07  1   0.0000
  10      -55.733623639 -0.000000047  0.000015   23    5 2.030E-07  1   0.0000
  11      -55.733623652 -0.000000012  0.000008   23    5 5.926E-08  1   0.0000
  12      -55.733623655 -0.000000004  0.000004   23    5 1.903E-08  1   0.0000
  13      -55.733623657 -0.000000001  0.000003   23    5 6.517E-09  1   0.0000
  14      -55.733623657 -0.000000000  0.000001   23    5 2.323E-09  1   0.0000
  15      -55.733623657 -0.000000000  0.000001   23    5 8.596E-10  1   0.0000

          --------------------
          LAGRANGIAN CONVERGED
          --------------------

 FINAL MCSCF ENERGY IS      -55.7336236571 AFTER  15 ITERATIONS

 -MCCI- BASED ON OPTIMIZED ORBITALS
 ----------------------------------

 PLEASE NOTE: IF THE ACTIVE ORBITALS ARE CANONICALIZED BELOW,
 THE FOLLOWING CI EXPANSION COEFFICIENTS AND THE DENSITY DO NOT
 CORRESPOND TO THE PRINTED ORBITALS.  THE PRINTED EXPANSIONS MATCH
 THE ORBITALS USED DURING THE LAST ITERATION.  IF YOU WISH TO SEE
 CI EXPANSIONS BASED ON THE CANONICAL (OR NATURAL) ORBITALS, YOU
 MUST RUN A CI CALCULATION WITH THAT ORBITAL CHOICE READ IN $VEC.

 Averaged energy =     -55.733623657

 State #    1  Energy =     -55.871398178  S =  0.500

      Det      Coef    Occupancy (Ignoring core)
      ---      ----    --------- --------- -----
        1    0.939835  11110001110000
        5   -0.065586  01111001110000
        8   -0.127541  10110101110000
       17   -0.132109  11010011110000
       36   -0.143367  11110001101000
      211    0.050326  11110000110100
      386    0.099778  11110001010010
      393    0.060256  10110101010010
      701    0.101590  11110001100001
      717    0.059576  11010011100001

 State #    2  Energy =     -55.745744848  S =  0.500

      Det      Coef    Occupancy (Ignoring core)
      ---      ----    --------- --------- -----
        1    0.110387  11110001110000
       36    0.598879  11110001101000
       43   -0.060163  10110101101000
       52   -0.053639  11010011101000
       71   -0.749369  11110001011000
       78    0.063779  10110101011000
       87    0.077822  11010011011000
      456    0.065826  11110001001010
      806    0.078059  11110001001001

 State #    3  Energy =     -55.583727946  S =  0.500

      Det      Coef    Occupancy (Ignoring core)
      ---      ----    --------- --------- -----
        1   -0.091054  11110001110000
       36   -0.744100  11110001101000
       43    0.063350  10110101101000
       71   -0.610648  11110001011000
       87    0.053856  11010011011000
      281   -0.056472  11110000101100
      456   -0.065886  11110001001010
      463   -0.052668  10110101001010
      806    0.064304  11110001001001

 DENSITY MATRIX OVER ACTIVE MO-S

             1           2           3           4           5

    1    1.9767105
    2   -0.0018751   1.6330981
    3   -0.0115964  -0.0018843   1.6338139
    4    0.0021162  -0.0010455  -0.0015240   1.6547739
    5    0.1014224   0.0040804   0.0244174   0.0219180   0.0283687
    6   -0.0077953  -0.1404046   0.0205459  -0.0017669  -0.0024071
    7   -0.0050695  -0.0043439   0.1496322   0.0277150   0.0025830

             6           7

    6    0.0357828
    7   -0.0023166   0.0374520

 FORMING THE "STANDARD FOCK OPERATOR" IN DIRECT AO INTEGRAL MODE...
 ONLY THE    1 CORE AND   21 VIRTUAL ORBITALS WILL BE CANONICALIZED

          ----------------------
          MCSCF NATURAL ORBITALS
          ----------------------

                      1          2          3          4          5
                  -15.9860     1.9824     1.6561     1.6503     1.6425
                     A          A          A          A          A   
    1  N  1  S    1.001212   0.008407  -0.010056   0.002862   0.001451
    2  N  1  S   -0.001816   0.436262  -0.158073   0.103367   0.028490
    3  N  1  S   -0.006282   0.310316  -0.256205   0.139927   0.043158
    4  N  1  X   -0.000113  -0.001846  -0.080966  -0.236620   0.450196
    5  N  1  Y    0.000098  -0.029314   0.176487   0.367473   0.287418
    6  N  1  Z    0.001165   0.091865   0.563442  -0.175052  -0.004061
    7  N  1  X   -0.000023   0.001977  -0.028986  -0.075086   0.239811
    8  N  1  Y   -0.000003  -0.000750   0.096049   0.120206   0.156919
    9  N  1  Z   -0.000507   0.012621   0.373215  -0.095754   0.010007
   10  N  1 XX    0.000007  -0.001265  -0.011273   0.004152   0.008596
   11  N  1 YY    0.000209   0.000796  -0.011245   0.003802  -0.008352
   12  N  1 ZZ   -0.000216   0.000468   0.022518  -0.007954  -0.000244
   13  N  1 XY   -0.000403  -0.003058  -0.002372  -0.005868  -0.009529
   14  N  1 XZ   -0.000016   0.001013  -0.003960  -0.010516   0.020661
   15  N  1 YZ   -0.000099  -0.002395   0.004987   0.018784   0.013746
   16  H  2  S   -0.002062   0.175163   0.211658   0.322737  -0.004124
   17  H  2  S    0.000647  -0.000895   0.036563   0.032595   0.004679
   18  H  2  X   -0.000642   0.020118   0.015388   0.020538   0.014015
   19  H  2  Y    0.000888  -0.029134  -0.018690  -0.024572   0.013849
   20  H  2  Z    0.000380  -0.003652   0.014532  -0.019275  -0.000194
   21  H  3  S   -0.001796   0.200995   0.052380  -0.232227  -0.309198
   22  H  3  S    0.000307   0.006030   0.019504  -0.030759  -0.084946
   23  H  3  X   -0.000237   0.008324   0.002768  -0.023290   0.004359
   24  H  3  Y   -0.000845   0.033157   0.014480  -0.013808  -0.025909
   25  H  3  Z    0.000491  -0.013618   0.021664   0.005614   0.017799
   26  H  4  S   -0.001693   0.180613   0.037807  -0.254409   0.282530
   27  H  4  S    0.000373   0.000785   0.020772  -0.033913   0.079610
   28  H  4  X    0.000820  -0.030277  -0.008182   0.029740  -0.018561
   29  H  4  Y   -0.000283   0.011619   0.004916   0.004384   0.022216
   30  H  4  Z    0.000443  -0.009011   0.022646   0.005109  -0.013012

                      6          7          8
                    0.0281     0.0224     0.0182
                     A          A          A   
    1  N  1  S   -0.070078  -0.181612  -0.137534
    2  N  1  S   -0.230377  -0.622847  -0.406395
    3  N  1  S   -0.009967  -0.195030   0.020008
    4  N  1  X   -0.642883  -0.030012   0.593988
    5  N  1  Y   -0.443520   0.433042  -0.642540
    6  N  1  Z   -0.117386  -0.614450  -0.179821
    7  N  1  X    0.019153  -0.029726   0.055703
    8  N  1  Y    0.018702   0.082274  -0.064242
    9  N  1  Z    0.023882   0.056119   0.059311
   10  N  1 XX    0.021664  -0.024217   0.019592
   11  N  1 YY   -0.020245   0.020268  -0.010003
   12  N  1 ZZ   -0.001419   0.003950  -0.009589
   13  N  1 XY   -0.042967  -0.037337   0.000096
   14  N  1 XZ    0.019463   0.011793  -0.033863
   15  N  1 YZ    0.004914  -0.046401   0.027058
   16  H  2  S    0.202918   0.224804   0.849286
   17  H  2  S    0.029039   0.003534   0.145189
   18  H  2  X    0.020901   0.020773   0.050875
   19  H  2  Y   -0.009438  -0.032100  -0.071049
   20  H  2  Z   -0.002080   0.004139   0.017647
   21  H  3  S   -0.516300   0.677235  -0.044031
   22  H  3  S   -0.159216   0.109363  -0.009690
   23  H  3  X    0.006228   0.045236  -0.026983
   24  H  3  Y   -0.033357   0.060637   0.020600
   25  H  3  Z    0.020558   0.008809  -0.004444
   26  H  4  S    0.672005   0.410815  -0.273035
   27  H  4  S    0.170849   0.041891  -0.076842
   28  H  4  X   -0.052945  -0.058430   0.019786
   29  H  4  Y    0.036495  -0.007741   0.013032
   30  H  4  Z   -0.008858   0.023382  -0.005563

          ------------------------
          MCSCF OPTIMIZED ORBITALS
          ------------------------

                      1          2          3          4          5
                  -15.9860     0.0000     0.0000     0.0000     0.0000
                     A          A          A          A          A   
    1  N  1  S    1.001212  -0.002908   0.004465  -0.009680  -0.014422
    2  N  1  S   -0.001816   0.400734  -0.000975   0.012630  -0.191267
    3  N  1  S   -0.006282   0.305372  -0.002461   0.061825  -0.285422
    4  N  1  X   -0.000113  -0.003012   0.433270   0.070375  -0.009635
    5  N  1  Y    0.000098  -0.006961   0.010976   0.413343   0.036033
    6  N  1  Z    0.001165   0.052234  -0.003526  -0.000554   0.582861
    7  N  1  X   -0.000023   0.004460   0.237972   0.081218  -0.005780
    8  N  1  Y   -0.000003   0.008958   0.048341   0.202609   0.051826
    9  N  1  Z   -0.000507   0.013292  -0.005406   0.032307   0.385859
   10  N  1 XX    0.000007  -0.001588   0.006569   0.008528  -0.011634
   11  N  1 YY    0.000209   0.001316  -0.007413  -0.007195  -0.012106
   12  N  1 ZZ   -0.000216   0.000272   0.000844  -0.001333   0.023739
   13  N  1 XY   -0.000403  -0.005852  -0.006833  -0.012099  -0.001216
   14  N  1 XZ   -0.000016   0.001653   0.026561   0.001345  -0.000809
   15  N  1 YZ   -0.000099  -0.003508  -0.001877   0.027021  -0.001101
   16  H  2  S   -0.002062   0.206216  -0.259367   0.360857   0.118437
   17  H  2  S    0.000647   0.002213  -0.027916   0.049155   0.027013
   18  H  2  X   -0.000642   0.022764  -0.004628   0.031582   0.009404
   19  H  2  Y    0.000888  -0.031896   0.031837  -0.019513  -0.011845
   20  H  2  Z    0.000380  -0.003812   0.006888  -0.009907   0.020024
   21  H  3  S   -0.001796   0.212832  -0.154640  -0.398128   0.122775
   22  H  3  S    0.000307   0.006263  -0.063309  -0.080342   0.027137
   23  H  3  X   -0.000237   0.009775   0.018299  -0.017430   0.009897
   24  H  3  Y   -0.000845   0.034854  -0.018783  -0.024746   0.018783
   25  H  3  Z    0.000491  -0.012439   0.009071   0.021291   0.018799
   26  H  4  S   -0.001693   0.206318   0.422962  -0.016999   0.122733
   27  H  4  S    0.000373   0.005219   0.094935   0.028873   0.031223
   28  H  4  X    0.000820  -0.033220  -0.034838   0.010542  -0.018004
   29  H  4  Y   -0.000283   0.012472   0.015973   0.020375   0.003872
   30  H  4  Z    0.000443  -0.008232  -0.017334   0.000954   0.019884

                      6          7          8          9         10
                    0.0000     0.0000     0.0000     0.1356     0.1974
                     A          A          A          A          A   
    1  N  1  S    0.225808  -0.041506   0.062845  -0.125000   0.010901
    2  N  1  S    0.772520  -0.104021   0.167449  -0.186884   0.007492
    3  N  1  S    0.189130   0.026140  -0.083160   1.309935  -0.217604
    4  N  1  X    0.020031   0.915623   0.026471  -0.001210  -0.094218
    5  N  1  Y   -0.085388  -0.150121   0.919021   0.036003   0.092503
    6  N  1  Z    0.660009  -0.026179  -0.038267  -0.178335  -0.000464
    7  N  1  X    0.007863   0.046022  -0.053711   0.047562   0.457432
    8  N  1  Y   -0.057022  -0.058892   0.081680  -0.184157  -0.622465
    9  N  1  Z   -0.069167   0.022853  -0.022626   0.411260   0.029792
   10  N  1 XX    0.010734  -0.000642  -0.035918   0.000911  -0.000181
   11  N  1 YY   -0.010636   0.006358   0.026897   0.042701  -0.023698
   12  N  1 ZZ   -0.000099  -0.005715   0.009021  -0.043612   0.023879
   13  N  1 XY    0.044979   0.031296   0.012209  -0.068006   0.061828
   14  N  1 XZ   -0.005669  -0.035754   0.014058   0.009728   0.058679
   15  N  1 YZ    0.033590   0.016205  -0.036656  -0.053181  -0.087081
   16  H  2  S   -0.495199   0.420627  -0.562554   0.314896  -0.534239
   17  H  2  S   -0.052848   0.078308  -0.107249  -0.691977   1.918608
   18  H  2  X   -0.037906   0.019625  -0.035621  -0.047483   0.074861
   19  H  2  Y    0.051107  -0.039549   0.037857   0.078508  -0.089969
   20  H  2  Z   -0.008585   0.014532  -0.009109  -0.018278  -0.078186
   21  H  3  S   -0.469777   0.313439   0.598417   0.287575   0.226644
   22  H  3  S   -0.057087   0.099811   0.146707  -0.832691  -0.810508
   23  H  3  X   -0.034800  -0.022745   0.029850   0.042509  -0.013257
   24  H  3  Y   -0.051632   0.035635   0.030272  -0.095907  -0.020705
   25  H  3  Z   -0.012171  -0.017562  -0.004773   0.053515   0.058005
   26  H  4  S   -0.458325  -0.645409  -0.100373   0.348269   0.190875
   27  H  4  S   -0.058720  -0.169406  -0.042118  -0.904777  -0.723720
   28  H  4  X    0.059755   0.049981  -0.000489   0.048317   0.028062
   29  H  4  Y   -0.005185  -0.015544  -0.033530  -0.079309  -0.012628
   30  H  4  Z   -0.017753   0.000289   0.019125   0.041495   0.070681

                     11         12         13         14         15
                    0.2266     0.5340     0.5715     0.6400     0.8236
                     A          A          A          A          A   
    1  N  1  S    0.014490  -0.086896   0.007562  -0.019211  -0.432416
    2  N  1  S    0.029743  -0.082258  -0.054119  -0.107770  -0.979385
    3  N  1  S   -0.095914   0.798853  -0.368058  -0.134684   1.728302
    4  N  1  X   -0.029412  -0.146519  -0.499905   0.297156  -0.043025
    5  N  1  Y    0.017882  -0.389142  -0.281391  -0.278630   0.054224
    6  N  1  Z    0.020441  -0.566187   0.294020   0.283018   0.285416
    7  N  1  X    0.440860   0.142261   1.260750  -1.220426   0.118883
    8  N  1  Y    0.151752   0.950793   0.725754   1.458405  -0.111308
    9  N  1  Z   -0.064344   0.845272  -0.569887  -0.644066  -0.107553
   10  N  1 XX    0.068399   0.010531  -0.020272   0.014410   0.099975
   11  N  1 YY   -0.065839  -0.034112   0.039614  -0.010016  -0.049684
   12  N  1 ZZ   -0.002560   0.023582  -0.019341  -0.004394  -0.050291
   13  N  1 XY   -0.050343   0.015052  -0.027985  -0.014757   0.068725
   14  N  1 XZ    0.059707   0.004509   0.007763   0.033672  -0.049871
   15  N  1 YZ    0.033253   0.018033   0.002015  -0.044415   0.017073
   16  H  2  S    0.030603  -0.621499   0.308645  -0.465189  -0.103874
   17  H  2  S   -0.009847  -0.470053  -0.026150  -0.782280  -0.351160
   18  H  2  X   -0.025859  -0.055531   0.084782  -0.143995  -0.096266
   19  H  2  Y   -0.038294   0.066318   0.047755   0.131795  -0.024976
   20  H  2  Z   -0.006601   0.066067  -0.031217  -0.124280   0.181837
   21  H  3  S   -0.582462  -0.063180   0.576342   0.488317   0.057457
   22  H  3  S    1.956584   0.465217   0.853242   0.224080  -0.273441
   23  H  3  X    0.039970  -0.090482   0.070067   0.092821  -0.405733
   24  H  3  Y    0.071485   0.083704   0.075435   0.133764  -0.048535
   25  H  3  Z   -0.033109   0.018344  -0.103997   0.044156   0.013376
   26  H  4  S    0.568508  -0.280169  -0.167026   0.690074   0.028449
   27  H  4  S   -1.888332  -0.294962  -0.767092   0.439185  -0.369512
   28  H  4  X    0.074510   0.058047   0.010070  -0.192205   0.318722
   29  H  4  Y   -0.000648   0.083962  -0.126033   0.075259   0.254035
   30  H  4  Z    0.022196   0.090883   0.021389   0.068714  -0.070903

                     16         17         18         19         20
                    0.9917     1.0700     1.2814     1.3584     1.4872
                     A          A          A          A          A   
    1  N  1  S   -0.411338  -0.150640   0.096020  -0.271770  -0.467085
    2  N  1  S   -0.865420  -0.315537   0.200004  -0.574112  -0.970244
    3  N  1  S    1.730870   0.722784  -0.372355   1.009291   1.737286
    4  N  1  X   -0.028387   0.084261  -0.194852  -0.027300  -0.073669
    5  N  1  Y    0.071347   0.025308   0.082087  -0.059685   0.053752
    6  N  1  Z    0.116425   0.030742   0.019676  -0.017320  -0.040023
    7  N  1  X    0.116591  -0.441497   0.739671  -0.167998   0.126748
    8  N  1  Y   -0.377685  -0.124974  -0.686360   0.682760  -0.628543
    9  N  1  Z   -0.093593   0.196019  -0.066285   0.358469   0.824301
   10  N  1 XX   -0.156884  -0.129830   0.013035   0.113644   0.039426
   11  N  1 YY   -0.087196   0.177381  -0.049337   0.031762   0.088070
   12  N  1 ZZ    0.244080  -0.047551   0.036302  -0.145406  -0.127496
   13  N  1 XY   -0.071584   0.089585   0.022137   0.031379  -0.057595
   14  N  1 XZ    0.001694   0.234234   0.103693   0.023732   0.063189
   15  N  1 YZ    0.027543   0.160740   0.031859   0.005586   0.044794
   16  H  2  S   -0.108999  -0.191427   0.543976  -0.535181  -0.246652
   17  H  2  S   -0.204532  -0.156752   0.278651  -0.266235  -0.050375
   18  H  2  X    0.016569   0.394120  -0.391773  -0.395858   0.090593
   19  H  2  Y   -0.015840   0.373327  -0.077613  -0.434386   0.222482
   20  H  2  Z    0.271965   0.034640  -0.344022   0.116970  -0.798154
   21  H  3  S   -0.417000  -0.232319   0.011060  -0.021298  -0.672652
   22  H  3  S   -0.227470  -0.177396  -0.040247  -0.016639  -0.274964
   23  H  3  X    0.251211   0.037254   0.045386   0.408409  -0.004100
   24  H  3  Y    0.086007  -0.278705  -0.154345  -0.438616   0.056192
   25  H  3  Z    0.367449  -0.444235   0.054274  -0.446599   0.176892
   26  H  4  S   -0.393520   0.055398  -0.373998  -0.179536  -0.627163
   27  H  4  S   -0.199164   0.042050  -0.090153   0.006658  -0.053348
   28  H  4  X   -0.162334  -0.004968  -0.142730  -0.153351  -0.087761
   29  H  4  Y   -0.160571   0.088670   0.644343  -0.142675  -0.071842
   30  H  4  Z    0.373542   0.299706   0.461459  -0.209031  -0.370983

                     21         22         23         24         25
                    1.6148     1.8759     1.9316     1.9806     2.0601
                     A          A          A          A          A   
    1  N  1  S   -0.109570   0.008922   0.094365  -0.072391  -0.011446
    2  N  1  S   -0.222984  -0.021414   0.308843  -0.155302   0.000719
    3  N  1  S    0.410315  -0.191593   1.300630   0.061620   0.458621
    4  N  1  X    0.151526  -0.362080  -0.016075   0.213329  -0.107286
    5  N  1  Y    0.209837   0.550777  -0.048861   0.078530   0.130222
    6  N  1  Z   -0.024404  -0.114814   0.278652  -0.056657   0.048063
    7  N  1  X    0.620865  -0.183588   0.055394  -0.198499   0.002565
    8  N  1  Y   -0.116038   0.073217   0.010767  -0.076452   0.213543
    9  N  1  Z    0.185790  -0.118143   0.457976   0.072028   0.413242
   10  N  1 XX    0.013153   0.195199   0.057075  -0.296902  -0.575731
   11  N  1 YY    0.094752  -0.037340  -0.053637   0.207045  -0.221866
   12  N  1 ZZ   -0.107904  -0.157859  -0.003438   0.089857   0.797597
   13  N  1 XY    0.072016   0.239000   0.318870  -0.012000  -0.449077
   14  N  1 XZ   -0.220715   0.114036   0.121147  -0.056092   0.136095
   15  N  1 YZ   -0.121657  -0.148650   0.192756  -0.098007  -0.221553
   16  H  2  S    0.100195   0.037496  -0.254120  -0.031329  -0.236179
   17  H  2  S   -0.005211  -0.365242  -0.310905  -0.018469  -0.246899
   18  H  2  X   -0.364891  -0.289191  -0.586235   0.034111  -0.378736
   19  H  2  Y   -0.074139   0.606868   0.560028  -0.110505   0.290969
   20  H  2  Z   -0.257045   0.478360  -0.128539  -0.067118  -0.065269
   21  H  3  S   -0.263923  -0.005971  -0.254253   0.051508  -0.095350
   22  H  3  S    0.314650   0.244622  -0.119279   0.362411   0.030727
   23  H  3  X   -0.266017   0.210963   0.220808   0.823187  -0.317364
   24  H  3  Y    0.449956   0.476538  -0.449943   0.432772  -0.201728
   25  H  3  Z   -0.494055  -0.187266   0.344780  -0.108712  -0.464372
   26  H  4  S   -0.196642   0.038620  -0.288124  -0.095260  -0.087037
   27  H  4  S   -0.409978   0.246555  -0.354887  -0.319585   0.023962
   28  H  4  X    0.098436  -0.413757   0.617092   0.847667   0.072946
   29  H  4  Y   -0.435966   0.196659  -0.524959   0.502325  -0.050104
   30  H  4  Z    0.547710  -0.369285   0.041006  -0.155779  -0.349103

                     26         27         28         29
                    2.2709     2.6350     2.6883     2.9394
                     A          A          A          A   
    1  N  1  S    0.057712  -0.092486  -0.064537  -0.009941
    2  N  1  S    0.080533  -0.040095  -0.172362  -0.091014
    3  N  1  S   -0.674005   1.957470  -0.652065  -0.891449
    4  N  1  X    0.032849   0.005780   0.455949  -0.103083
    5  N  1  Y    0.044876  -0.266007  -0.274755  -0.435755
    6  N  1  Z   -0.072153   0.283842  -0.114605  -0.095945
    7  N  1  X    0.436334   0.247797   1.020127  -0.153520
    8  N  1  Y    0.268941  -0.900812  -0.673994  -0.711822
    9  N  1  Z   -0.327595   0.498904  -0.048104  -0.056130
   10  N  1 XX   -0.467117  -0.056220   0.563807  -0.763929
   11  N  1 YY    0.587546   0.629798  -0.867532   0.316324
   12  N  1 ZZ   -0.120429  -0.573578   0.303725   0.447606
   13  N  1 XY    0.040403  -0.348009   0.339130   1.201665
   14  N  1 XZ    0.735015   0.278355   0.843635  -0.279827
   15  N  1 YZ    0.392086  -1.016842  -0.443663  -0.518989
   16  H  2  S    0.198308  -0.184404   1.249444   1.032306
   17  H  2  S    0.077828   0.028425   0.465342   0.306681
   18  H  2  X   -0.408733  -0.073156   0.682587   0.369840
   19  H  2  Y   -0.528191   0.135599  -0.696155  -0.685501
   20  H  2  Z    0.168362   0.379618  -0.227466  -0.369013
   21  H  3  S    0.348126  -1.185611   0.252975  -0.810413
   22  H  3  S    0.247131  -0.423585   0.134781  -0.289751
   23  H  3  X   -0.338822  -0.293060   0.057549  -0.159317
   24  H  3  Y    0.512937  -0.717311   0.293836  -0.666976
   25  H  3  Z    0.188010   0.528121  -0.256697   0.356486
   26  H  4  S    0.066761  -0.787209  -0.770384   0.792602
   27  H  4  S   -0.075230  -0.184782  -0.362494   0.255222
   28  H  4  X   -0.035578   0.437187   0.554716  -0.708739
   29  H  4  Y   -0.134996  -0.061240  -0.370126   0.216815
   30  H  4  Z   -0.157458   0.293422   0.159652  -0.452506
 .....DONE WITH MCSCF ITERATIONS.....
 CPU     0: STEP CPU TIME=     9.45 TOTAL CPU TIME=         10.7 (      0.2 MIN)
 TOTAL WALL CLOCK TIME=         10.7 SECONDS, CPU UTILIZATION IS    99.91%

     ----------------------------------------------------------------
     PROPERTY VALUES FOR THE MCSCF SELF-CONSISTENT FIELD WAVEFUNCTION
     ----------------------------------------------------------------

          -----------------
          ENERGY COMPONENTS
          -----------------

         WAVEFUNCTION NORMALIZATION =       1.0000000000

                ONE ELECTRON ENERGY =     -94.3082021887
                TWO ELECTRON ENERGY =      27.1495804558
           NUCLEAR REPULSION ENERGY =      11.4249980758
                                      ------------------
                       TOTAL ENERGY =     -55.7336236571

 ELECTRON-ELECTRON POTENTIAL ENERGY =      27.1495804558
  NUCLEUS-ELECTRON POTENTIAL ENERGY =    -150.1130615383
   NUCLEUS-NUCLEUS POTENTIAL ENERGY =      11.4249980758
                                      ------------------
             TOTAL POTENTIAL ENERGY =    -111.5384830067
               TOTAL KINETIC ENERGY =      55.8048593496
                 VIRIAL RATIO (V/T) =       1.9987234859

          ---------------------------------------
          MULLIKEN AND LOWDIN POPULATION ANALYSES
          ---------------------------------------

     ATOMIC MULLIKEN POPULATION IN EACH MOLECULAR ORBITAL

                      1          2          3          4          5

                  2.000000   1.982399   1.656069   1.650325   1.642479

    1             2.000841   1.334749   1.501899   0.913180   1.120586
    2            -0.000341   0.188632   0.127144   0.350516   0.008071
    3            -0.000276   0.253155   0.016292   0.174050   0.272071
    4            -0.000224   0.205864   0.010734   0.212578   0.241751

                      6          7          8

                  0.028090   0.022397   0.018241

    1             0.013081   0.011884   0.009638
    2             0.000836   0.000689   0.007816
    3             0.004925   0.006987   0.000028
    4             0.009248   0.002836   0.000759
 WARNING! MCSCF POPULATIONS SHOWN ABOVE ARE FOR THE NATURAL ORBITALS.
 IGNORE THE ABOVE DATA FOR MCSCF FUNCTIONS WHICH ARE NOT OF -FORS- TYPE.
 THE FOLLOWING POPULATIONS ARE CORRECT FOR ANY MCSCF WAVEFUNCTION.

               ----- POPULATIONS IN EACH AO -----
                             MULLIKEN      LOWDIN
              1  N  1  S      2.00251     1.89887
              2  N  1  S      0.82167     0.57664
              3  N  1  S      0.66463     0.40025
              4  N  1  X      0.70111     0.63167
              5  N  1  Y      0.67905     0.60385
              6  N  1  Z      0.87160     0.81727
              7  N  1  X      0.34001     0.42464
              8  N  1  Y      0.28635     0.39682
              9  N  1  Z      0.52184     0.55823
             10  N  1 XX      0.00051     0.16539
             11  N  1 YY      0.00205     0.17245
             12  N  1 ZZ      0.00296     0.14226
             13  N  1 XY      0.00512     0.01018
             14  N  1 XZ      0.00645     0.00856
             15  N  1 YZ      0.00000     0.01305
             16  H  2  S      0.59967     0.46556
             17  H  2  S      0.02660     0.14359
             18  H  2  X      0.01842     0.03756
             19  H  2  Y      0.02681     0.04779
             20  H  2  Z      0.01185     0.03346
             21  H  3  S      0.61923     0.47689
             22  H  3  S      0.04993     0.14541
             23  H  3  X      0.01178     0.03212
             24  H  3  Y      0.02912     0.04849
             25  H  3  Z      0.01717     0.03938
             26  H  4  S      0.58171     0.44811
             27  H  4  S      0.04651     0.14704
             28  H  4  X      0.02923     0.05211
             29  H  4  Y      0.01209     0.02897
             30  H  4  Z      0.01400     0.03340

          ----- MULLIKEN ATOMIC OVERLAP POPULATIONS -----
          (OFF-DIAGONAL ELEMENTS NEED TO BE MULTIPLIED BY 2)

             1           2           3           4

    1    6.0248606
    2    0.3164192   0.3779710
    3    0.2860041  -0.0051887   0.4567809
    4    0.2785746  -0.0058396  -0.0103631   0.4211743

          TOTAL MULLIKEN AND LOWDIN ATOMIC POPULATIONS
       ATOM         MULL.POP.    CHARGE          LOW.POP.     CHARGE
    1 N             6.905859    0.094141         6.820127    0.179873
    2 H             0.683362    0.316638         0.727957    0.272043
    3 H             0.727233    0.272767         0.742283    0.257717
    4 H             0.683546    0.316454         0.709633    0.290367

          MULLIKEN SPHERICAL HARMONIC POPULATIONS
       ATOM           S       P       D      F      G      H      I    TOTAL
    1 N             3.49    3.40    0.02   0.00   0.00   0.00   0.00    6.91
    2 H             0.63    0.06    0.00   0.00   0.00   0.00   0.00    0.68
    3 H             0.67    0.06    0.00   0.00   0.00   0.00   0.00    0.73
    4 H             0.63    0.06    0.00   0.00   0.00   0.00   0.00    0.68

          ---------------------
          ELECTROSTATIC MOMENTS
          ---------------------

 POINT   1           X           Y           Z (BOHR)    CHARGE
                 0.000001   -0.000003   -0.177185        1.00 (A.U.)
         DX          DY          DZ         /D/  (DEBYE)
     0.119813   -0.567789    2.166464    2.242834
 ...... END OF PROPERTY EVALUATION ......
 CPU     0: STEP CPU TIME=     0.01 TOTAL CPU TIME=         10.7 (      0.2 MIN)
 TOTAL WALL CLOCK TIME=         10.7 SECONDS, CPU UTILIZATION IS    99.91%

     -------------------------------------------------
     GMC-PT/GMC-QDPT or general MCSCF input parameters
     -------------------------------------------------
 # of frozen core orbs. =         0 ->         0
 # of doubly occ. orbs. =         1
 # of active      orbs. =         7
 # of virtual     orbs. =        21
 # of active electrons  =         7
 # of states in CI      =         3
 Highest state in CI    =         3
 kstate =  1 1 1
 avecoe =  0.333 0.333 0.333
 State symmetry           = A           
 Assigned symmetry number = 1

 <<<Act. MO sym.: 1111111

 <<<Division of 1-ext.:  0
 <<<Division of 2-ext.:  0

     ------------------------
     Orbital canonicalization
     ------------------------

 MOs are canonicalized for core, virtual, and invariant-active orbital spaces.
 This is a part of the GMC-QDPT calculation.
 SCHWARZ INEQUALITY OVERHEAD:       465 INTEGRALS, T=        0.00
 DIRECT TRANSFORMATION SKIPS AO INTEGRAL STORAGE ON DISK.

 Averaged energy =     -55.733623657

 State #    1  Energy =     -55.871398178  S =  0.500
 State #    2  Energy =     -55.745744848  S =  0.500
 State #    3  Energy =     -55.583727946  S =  0.500

 Orbital energies for filled orbital space
  -15.986013
 Orbital energies for active orbital space
   -1.517227  -0.833223  -1.003643  -0.746996   0.317550
    0.419343   0.233937
 Orbital energies for external orbital space
    0.135579   0.197407   0.226584   0.534048   0.571537
    0.640027   0.823621   0.991664   1.070017   1.281442
    1.358355   1.487217   1.614848   1.875912   1.931575
    1.980640   2.060051   2.270864   2.635030   2.688277
    2.939404

 Zero values mean non-canonical orbitals.
 ... done with orbital canonicalization ...
 CPU     0: STEP CPU TIME=     0.58 TOTAL CPU TIME=         11.2 (      0.2 MIN)
 TOTAL WALL CLOCK TIME=         11.3 SECONDS, CPU UTILIZATION IS    99.91%

     --------------------------------------------
     PARTIAL TWO ELECTRON INTEGRAL TRANSFORMATION
     --------------------------------------------

 NUMBER OF CORE MOLECULAR ORBITALS     =    0
 NUMBER OF OCCUPIED MOLECULAR ORBITALS =    8
 TOTAL NUMBER OF MOLECULAR ORBITALS    =   29
 TOTAL NUMBER OF ATOMIC ORBITALS       =   30
 THRESHOLD FOR KEEPING TRANSFORMED 2E- INTEGRALS = 1.000E-09
 AO INTEGRALS WILL BE CALCULATED IN DIRECT MODE...
 DIRECT TRANSFORMATION SKIPS AO INTEGRAL STORAGE ON DISK.
 SCHWARZ INEQUALITY OVERHEAD:       465 INTEGRALS, T=        0.01

 PLAN A: REQUIREMENTS FOR FULLY IN-MEMORY TRANSFORMATION:
 # OF WORDS AVAILABLE =            100000000
 # OF WORDS NEEDED    =               221798

 PARALLEL ONLY WORKS WITH THE SEGMENTED ALGORITHM.
 ADJUSTING MEMORY TO USE SEGMENTED ALGORITHM.


 PLAN B: REQUIREMENTS FOR THE SEGMENTED TRANSFORMATION:
       MINIMUM=         124148 WORDS FOR 1 MOLECULAR ORBITAL PER PASS
       MAXIMUM=         221798 WORDS FOR ALL MOLECULAR ORBITALS IN 1 PASS
              (          13950 EXTRA WORDS INCLUDES 1 EXTRA ORBITAL/PASS)
 THIS RUN USES=         221798 WORDS,
 DISTRIBUTING   1 PASSES EACH CONTAINING     8 ORBITALS OVER   1 PROCESSORS.

 CHOOSING SEGMENTED PARTIAL TRANSFORMATION...
 DIRECT TRANSFORMATION SKIPS AO INTEGRAL STORAGE ON DISK.
 PASS #   1 TOOK        0.04 SECONDS.
 TOTAL NUMBER OF TRANSFORMED 2E- INTEGRALS KEPT =        29226
 ... END OF INTEGRAL TRANSFORMATION ...
 CPU     0: STEP CPU TIME=     0.05 TOTAL CPU TIME=         11.3 (      0.2 MIN)
 TOTAL WALL CLOCK TIME=         11.3 SECONDS, CPU UTILIZATION IS   100.00%

     --------     ------------------------------------------
     GMC-QDPT     Program written by H.Nakano (Kyushu Univ.)
     --------     ------------------------------------------

 *** Reference space

 Reference type: ORMAS (= Occupation restricted multiple active space)
 # of orbitals          =  7
 # of minimum electrons =  7
 # of maximum electrons =  7
 State symmetry    =    1 (input)
 2*Sz              =    1 (input)
 Spin multiplicity =    2 (input)
 Dimension of reference space =      1225  (from      3432 walks)

 Dimension of reference space =      1225  (from      1225 walks)

 <<<Ionized spaces for Ref-CI:
      0:         1225 /   -1-0:         1960 /  0-1-0:         2891

 ***                    ***
 *** Reference space CI ***
 ***                    ***

 Converged after   26 iterations

 Reference wavefunctions:

 State #    1  Energy =     -55.871398178  S =  0.500

      Det      Coef    Occupancy (Ignoring core)
      ---      ----    --------- --------- -----
        1   -0.976666  11110001110000
      357   -0.060531  11010101100010
      753   -0.072959  10110011010001

 State #    2  Energy =     -55.745744848  S =  0.500

      Det      Coef    Occupancy (Ignoring core)
      ---      ----    --------- --------- -----
       71    0.982298  11110001011000
      462   -0.060389  11010101001010

 State #    3  Energy =     -55.583727946  S =  0.500

      Det      Coef    Occupancy (Ignoring core)
      ---      ----    --------- --------- -----
       36    0.978514  11110001101000
      823    0.073624  10110011001001

 Davidson method: CPU/Wall time =           0.40 /           0.40 sec.

 Oscillator strength (invalid if E(1)/=E(GS)):
 -----------------------------------------
   State                        f
 -----------------------------------------
     2     F(REF-CI)=        0.0005670457
     3     F(REF-CI)=        0.0027569725
 -----------------------------------------

 Dipole moment matrix elements, x, y, z, in A.U.

 Dimension of ionized spaces for PT:
 (N-2) space:         1715 /  (N-1) space:         2842 /  N space:         2891
 (N+1) space:         2842 /  (N+2) space:         1715

 <<<Ionized spaces for internal:
         0:         1225 /      -1-0:         1960 /     0-1-0:         2891
  -1-0-1-0:         2842 / 0-1-0-1-0:         3381

 Diagonal elements of averaged one-particle density matrix:
       2       3       4       5       6       7       8
  0.9935  0.9857  0.9885  0.9925  0.0127  0.0108  0.0164
  0.9888  0.6569  0.6620  0.6631  0.0100  0.0077  0.0116

 Orbital energies:
 -------- Doubly-occupied orbitals (highest several orbs.) -------
             1
 -1.598601D+01
 -------- Active orbitals ----------------------------------------
             2            3            4            5            6
 -1.517227D+00-8.332228D-01-1.003643D+00-7.469957D-01 3.175497D-01
             7            8
  4.193435D-01 2.339365D-01
 -------- External orbitals (lowest several orbs.) ---------------
             9           10           11           12           13
  1.355791D-01 1.974074D-01 2.265837D-01 5.340480D-01 5.715374D-01
            14           15           16           17           18
  6.400267D-01 8.236209D-01 9.916638D-01 1.070017D+00 1.281442D+00

 *** Quasi-degeneracy checking

 === Det (|Ci| > 1.0D-01 and dE < 5.0D-03)

 # of small denominators (single excitations)
 State       dEmin  dE < 5.0D-03  dE < 5.0D-04  dE < 5.0D-05  dE < 5.0D-06
 ----- ----------- ------------- ------------- ------------- -------------
     1    5.00D-03             0             0             0             0
     2    5.00D-03             0             0             0             0
     3    5.00D-03             0             0             0             0

 # of small denominators (double excitations)
 State       dEmin  dE < 5.0D-03  dE < 5.0D-04  dE < 5.0D-05  dE < 5.0D-06
 ----- ----------- ------------- ------------- ------------- -------------
     1    5.00D-03             0             0             0             0
     2    5.00D-03             0             0             0             0
     3    5.00D-03             0             0             0             0

 *** Zeroth-Order Setup (Granovsky's zeroth-order vectors)
 Zeroth-order effective Hamiltonian
  (= Sum_i e(i)*<I|a+(i)a(i)|J> ):
                   1            2            3
     1 -7.350724D+00
     2  7.110107D-03-7.287614D+00
     3 -1.869712D-03-2.243560D-03-7.105244D+00

 Zeroth-order vectors:
 State #    1
       MC st            1           2           3
       Coeff    9.939D-01  -1.103D-01   6.540D-03
 State #    2
       MC st            2           1           3
       Coeff   -9.938D-01  -1.102D-01  -1.341D-02
 State #    3
       MC st            3           2           1
       Coeff    9.999D-01  -1.261D-02  -7.980D-03

 *** GMC-QDPT computation

 (Integral reading:  CPU/Wall time =           0.00 /           0.00 sec.)

 One-external:
   0 -ionized terms: CPU/Wall time =           0.03 /           0.03 sec.
 (-1)-ionized terms: CPU/Wall time =           0.08 /           0.09 sec.
 (+1)-ionized terms: CPU/Wall time =           0.03 /           0.02 sec.
 (+1)-ionized terms: CPU/Wall time =           0.00 /           0.01 sec.
 (+2)-ionized terms: CPU/Wall time =           0.01 /           0.00 sec.

 Internal:
 # of macro loops for internal contribution =         1 (input)
 Loop:    1
 Dimension of internal CISD space     =         0  (after screening)
 Space construction: CPU/Wall time =           0.01 /           0.01 sec.
 Internal terms:     CPU/Wall time =           0.00 /           0.00 sec.

 Two-external:
   0 -ionized terms: CPU/Wall time =           0.07 /           0.07 sec.
 (-1)-ionized terms: CPU/Wall time =           1.00 /           0.99 sec.
 (-2)-ionized terms: CPU/Wall time =           0.17 /           0.17 sec.

 Total time:         CPU/Wall time =           1.40 /           1.39 sec.

 ***                  ***
 *** GMC-QDPT Results ***
 ***                  ***

 Diagonal elements of effective Hamiltonian:
 Heff(  1) =   -55.96835539
 Heff(  2) =   -55.85521998
 Heff(  3) =   -55.69511983

 Off-diagonal elements of effective Hamiltonian:
                   1            2
     2  1.222401D-02
     3  1.608614D-03-2.117860D-03

 ******** GMC-QDPT energies ********
 ----------------------------------------------------------------------------
   State                        1st order                           2nd order
 ----------------------------------------------------------------------------
     1     E(REF-CI)=      -55.8713981775   E(GMC-QDPT2)=      -55.9696732209
     2     E(REF-CI)=      -55.7457448476   E(GMC-QDPT2)=      -55.8539378433
     3     E(REF-CI)=      -55.5837279462   E(GMC-QDPT2)=      -55.6950841369
 ----------------------------------------------------------------------------

 Excitation energies (invalid if E(1)/=E(GS)):
 ----------------------------------------------------------------------------
   State                        1st order                           2nd order
 ----------------------------------------------------------------------------

     TZ Sorted GMC-PT ENERGIES:
         1      -55.9696732209
         2      -55.8539378433
         3      -55.6950841369
     2     E(REF-CI)=        3.4192030 eV   E(GMC-QDPT2)=        3.1493217 eV
     3     E(REF-CI)=        7.8279097 eV   E(GMC-QDPT2)=        7.4719534 eV
 ----------------------------------------------------------------------------

 Main characters of perturbed GMC-QDPT states:

 State #    1  Energy =     -55.969673221  S =  0.500

      Det      Coef    Occupancy (Ignoring core)
      ---      ----    --------- --------- -----
        1   -0.976848  11110001110000
      357   -0.060517  11010101100010
      753   -0.072897  10110011010001

 State #    2  Energy =     -55.853937843  S =  0.500

      Det      Coef    Occupancy (Ignoring core)
      ---      ----    --------- --------- -----
       71    0.982477  11110001011000
      462   -0.060397  11010101001010

 State #    3  Energy =     -55.695084137  S =  0.500

      Det      Coef    Occupancy (Ignoring core)
      ---      ----    --------- --------- -----
       36    0.978517  11110001101000
      823    0.073631  10110011001001

 <<<Max |V/de| = 2.572D-02  Thresh = 1.000D+00

 Oscillator strength (invalid if E(1)/=E(GS)):
 ----------------------------------------------------------------------------
   State                        1st order                           2nd order
 ----------------------------------------------------------------------------
     2     F(REF-CI)=        0.0005670457     F(GMC-PT2)=        0.0005440627
     3     F(REF-CI)=        0.0027569725     F(GMC-PT2)=        0.0026729995
 ----------------------------------------------------------------------------

 Dipole moment matrix elements, x, y, z, in A.U.
States    1    1        0.0681630942       -0.2607496743        0.7351539877
States    1    2       -0.0261282523       -0.0354760744        0.0714852548
States    1    3        0.0651917683       -0.0773040028       -0.0661508894
States    2    1       -0.0261282523       -0.0354760744        0.0714852548
States    2    2       -0.0808454296       -0.1084247253        0.2709621453
States    2    3       -0.1641304718       -0.0293522979        0.0011259861
States    3    1        0.0651917683       -0.0773040028       -0.0661508894
States    3    2       -0.1641304718       -0.0293522979        0.0011259861
States    3    3        0.1854225968       -0.5313270466        0.2489717476

 Oscillator strength (valid only when positive): 
 ----------------------------------------------------------------------------
  States                        1st order                           2nd order
 ----------------------------------------------------------------------------
  1  1     F(REF-CI)=        0.0000000000     F(GMC-PT2)=        0.0000000000
  1  2     F(REF-CI)=       -0.0005670457     F(GMC-PT2)=       -0.0005440627
  1  3     F(REF-CI)=       -0.0027569725     F(GMC-PT2)=       -0.0026729995
  2  1     F(REF-CI)=        0.0005670457     F(GMC-PT2)=        0.0005440627
  2  2     F(REF-CI)=        0.0000000000     F(GMC-PT2)=        0.0000000000
  2  3     F(REF-CI)=       -0.0030147705     F(GMC-PT2)=       -0.0029442621
  3  1     F(REF-CI)=        0.0027569725     F(GMC-PT2)=        0.0026729995
  3  2     F(REF-CI)=        0.0030147705     F(GMC-PT2)=        0.0029442621
  3  3     F(REF-CI)=        0.0000000000     F(GMC-PT2)=        0.0000000000
 CPU     0: STEP CPU TIME=     1.85 TOTAL CPU TIME=         13.1 (      0.2 MIN)
 TOTAL WALL CLOCK TIME=         13.2 SECONDS, CPU UTILIZATION IS    99.85%

     !!! DIABATIZATION FOR REF CI STATES !!!

 *******************************************************
          $DMO GROUP FOUND IN THE INPUT.
        DIABATIZATION OF ADIABATIC STATES BEGINS.
     PROGRAMMED BY TAO ZENG (CARLETON UNIVERSITY).
               Email: toby.zeng@carleton.ca
     See T. Zeng, J. Chem. Phys. 2017, 146, 144103
 *******************************************************

 *************************************************************************
     STEP 1: TRANSFORMATION OF ADIABATIC STATES TO THE DMO REPRESENTATION
         See Atchity and Ruedenberg, J. Chem. Phys. 1999, 111, 2910
 *************************************************************************

Read in Diabatic Molecualr Orbitals:

                      1          2          3          4          5

    1  N  1  S    0.008609   0.000000   0.000000  -0.013219   0.279491
    2  N  1  S    0.442914  -0.000000   0.000000  -0.184329   0.867803
    3  N  1  S    0.276913   0.000000  -0.000000  -0.288315   0.144236
    4  N  1  X   -0.000000   0.493155  -0.024636  -0.000000  -0.000000
    5  N  1  Y    0.000000   0.024636   0.493155  -0.000000   0.000000
    6  N  1  Z    0.090197   0.000000   0.000000   0.593421   0.705309
    7  N  1  X   -0.000000   0.210628  -0.010522   0.000000   0.000000
    8  N  1  Y    0.000000   0.010522   0.210628  -0.000000  -0.000000
    9  N  1  Z   -0.004381   0.000000   0.000000   0.381592  -0.106092
   10  N  1 XX   -0.000457   0.010719  -0.000535  -0.012387   0.006153
   11  N  1 YY   -0.000457  -0.010719   0.000535  -0.012387   0.006153
   12  N  1 ZZ    0.000914  -0.000000   0.000000   0.024773  -0.012306
   13  N  1 XY    0.000000  -0.000618  -0.012377  -0.000000   0.000000
   14  N  1 XZ   -0.000000   0.026529  -0.001325  -0.000000   0.000000
   15  N  1 YZ    0.000000   0.001325   0.026529  -0.000000   0.000000
   16  H  2  S    0.194462  -0.176074   0.343485   0.112865  -0.523343
   17  H  2  S    0.003574  -0.023812   0.046452   0.024014  -0.054445
   18  H  2  X    0.018760   0.009101   0.022834   0.009336  -0.039151
   19  H  2  Y   -0.032493   0.022287  -0.020044  -0.016171   0.067811
   20  H  2  Z   -0.009251   0.008464  -0.016511   0.018769  -0.010566
   21  H  3  S    0.194462  -0.209430  -0.324227   0.112865  -0.523343
   22  H  3  S    0.003574  -0.028322  -0.043847   0.024014  -0.054445
   23  H  3  X    0.018760   0.006781  -0.023627   0.009336  -0.039151
   24  H  3  Y    0.032493  -0.024174  -0.017723   0.016171  -0.067811
   25  H  3  Z   -0.009251   0.010067   0.015585   0.018769  -0.010566
   26  H  4  S    0.194462   0.385503  -0.019258   0.112865  -0.523343
   27  H  4  S    0.003574   0.052134  -0.002604   0.024014  -0.054445
   28  H  4  X   -0.037519  -0.032295   0.001613  -0.018672   0.078302
   29  H  4  Y    0.000000   0.001067   0.021353  -0.000000   0.000000
   30  H  4  Z   -0.009251  -0.018530   0.000926   0.018769  -0.010566

                      6          7

    1  N  1  S    0.000000  -0.000000
    2  N  1  S    0.000000  -0.000000
    3  N  1  S   -0.000000   0.000000
    4  N  1  X   -0.930415  -0.002083
    5  N  1  Y   -0.002083   0.930415
    6  N  1  Z   -0.000000   0.000000
    7  N  1  X   -0.046866  -0.000105
    8  N  1  Y   -0.000105   0.046866
    9  N  1  Z   -0.000000   0.000000
   10  N  1 XX    0.001538   0.000003
   11  N  1 YY   -0.001538  -0.000003
   12  N  1 ZZ   -0.000000   0.000000
   13  N  1 XY   -0.000004   0.001776
   14  N  1 XZ    0.039985   0.000090
   15  N  1 YZ    0.000090  -0.039985
   16  H  2  S   -0.362630  -0.631354
   17  H  2  S   -0.065964  -0.114846
   18  H  2  X    0.002763  -0.037520
   19  H  2  Y    0.037435   0.040736
   20  H  2  Z    0.001882   0.003276
   21  H  3  S   -0.365454   0.629724
   22  H  3  S   -0.066477   0.114549
   23  H  3  X    0.002595   0.037532
   24  H  3  Y   -0.037617   0.040567
   25  H  3  Z    0.001896  -0.003268
   26  H  4  S    0.728084   0.001630
   27  H  4  S    0.132441   0.000297
   28  H  4  X   -0.062317  -0.000140
   29  H  4  Y    0.000055  -0.024345
   30  H  4  Z   -0.003778  -0.000008

NUMBER OF SUB ACTIVE SPACES:   1
ROTATE ACTIVE MOS TO DMOS IN EACH SUB-SPACE

SPACE  1:

OVERLAP BETWEEN ORTHONORMAL AND PRE-ORTHONORMAL REF. DMOS

             1           2           3           4           5

    1    0.9879934  -0.0026154  -0.0195384  -0.0043197  -0.0011220
    2   -0.0026154   0.9530110  -0.0585569   0.0022894  -0.0134726
    3   -0.0195384  -0.0585569   1.0020823  -0.0315423   0.0626525
    4   -0.0043197   0.0022894  -0.0315423   0.9966665  -0.0054915
    5   -0.0011220  -0.0134726   0.0626525  -0.0054915   1.0818762
    6   -0.0016475  -0.0291585  -0.0480710   0.0113011  -0.0354510
    7   -0.0033656   0.0560398  -0.0119469   0.0399401  -0.0211564

             6           7

    1   -0.0016475  -0.0033656
    2   -0.0291585   0.0560398
    3   -0.0480710  -0.0119469
    4    0.0113011   0.0399401
    5   -0.0354510  -0.0211564
    6    1.0276202  -0.0174623
    7   -0.0174623   1.0268915
REFERENCE DMOS AFTER ORTHONORMALIZATION:

                      1          2          3          4          5

    1  N  1  S    0.008681   0.002679  -0.015826  -0.012626   0.259625
    2  N  1  S    0.447684   0.009731  -0.045105  -0.181330   0.805839
    3  N  1  S    0.279014   0.002026  -0.011298  -0.288380   0.133376
    4  N  1  X   -0.001079   0.490095  -0.037769   0.009515  -0.021872
    5  N  1  Y    0.013072   0.004290   0.505280  -0.021026  -0.010230
    6  N  1  Z    0.094290   0.007968  -0.019273   0.599025   0.656596
    7  N  1  X    0.000484   0.220591   0.000292   0.000472   0.001188
    8  N  1  Y    0.004464   0.021588   0.213439   0.004669  -0.010793
    9  N  1  Z   -0.002591  -0.000457   0.017567   0.383631  -0.097702
   10  N  1 XX   -0.000487   0.011391  -0.000535  -0.012466   0.005867
   11  N  1 YY   -0.000557  -0.011314  -0.000932  -0.012433   0.005510
   12  N  1 ZZ    0.001044  -0.000077   0.001467   0.024899  -0.011377
   13  N  1 XY   -0.000248  -0.001524  -0.012512  -0.000451   0.000717
   14  N  1 XZ    0.000185   0.029260   0.002187  -0.000411   0.001528
   15  N  1 YZ    0.000416   0.005305   0.026573   0.002375  -0.002200
   16  H  2  S    0.200694  -0.145072   0.350835   0.151895  -0.529259
   17  H  2  S    0.004035  -0.018427   0.045348   0.030591  -0.057436
   18  H  2  X    0.019424   0.012961   0.026324   0.011545  -0.038144
   19  H  2  Y   -0.033063   0.021734  -0.021740  -0.018824   0.066162
   20  H  2  Z   -0.009564   0.007691  -0.015039   0.018172  -0.008656
   21  H  3  S    0.191046  -0.292960  -0.316269   0.082202  -0.469211
   22  H  3  S    0.002918  -0.041743  -0.044471   0.018875  -0.048237
   23  H  3  X    0.018712   0.003386  -0.020181   0.007190  -0.034198
   24  H  3  Y    0.032549  -0.030661  -0.015925   0.014493  -0.062583
   25  H  3  Z   -0.008927   0.011752   0.017393   0.019416  -0.010552
   26  H  4  S    0.200488   0.425848   0.075284   0.105836  -0.459302
   27  H  4  S    0.004239   0.058762   0.010670   0.022694  -0.045905
   28  H  4  X   -0.038337  -0.035486  -0.009006  -0.018151   0.070429
   29  H  4  Y    0.000360   0.003828   0.021442   0.001606  -0.001627
   30  H  4  Z   -0.009341  -0.019770   0.000583   0.018853  -0.010117

                      6          7

    1  N  1  S    0.008542   0.005683
    2  N  1  S    0.029095   0.024561
    3  N  1  S    0.008000   0.014773
    4  N  1  X   -0.894898  -0.045256
    5  N  1  Y    0.037144   0.912976
    6  N  1  Z    0.015372  -0.009860
    7  N  1  X   -0.039514  -0.012801
    8  N  1  Y    0.010873   0.046739
    9  N  1  Z   -0.007071  -0.016833
   10  N  1 XX    0.002134   0.000016
   11  N  1 YY   -0.001515   0.001173
   12  N  1 ZZ   -0.000618  -0.001189
   13  N  1 XY   -0.000574   0.001689
   14  N  1 XZ    0.039888  -0.000758
   15  N  1 YZ    0.000716  -0.039043
   16  H  2  S   -0.370820  -0.625282
   17  H  2  S   -0.066837  -0.113801
   18  H  2  X    0.002230  -0.038071
   19  H  2  Y    0.039159   0.040883
   20  H  2  Z    0.000861   0.001694
   21  H  3  S   -0.385213   0.606753
   22  H  3  S   -0.067946   0.110436
   23  H  3  X    0.001047   0.035224
   24  H  3  Y   -0.039831   0.038569
   25  H  3  Z    0.002323  -0.004584
   26  H  4  S    0.707064  -0.021674
   27  H  4  S    0.129180  -0.002412
   28  H  4  X   -0.059456   0.002716
   29  H  4  Y    0.000688  -0.023750
   30  H  4  Z   -0.004781   0.000024

 -------------------------------------------
       MAXIMIZING MORMO OVERLAP TERM        
 -------------------------------------------
   SWEEP    VALUE       PROGRESS
     0     4.72384
     1     6.90179     2.17795036
     2     6.97490     0.07310983
     3     6.97493     0.00002989
     4     6.97493     0.00000000
     5     6.97493     0.00000000
 THE ROTATION IS DONE
ACTIVE ORBITALS AFTER MORMO:

                      1          2          3          4          5

    1  N  1  S    0.007643   0.001367  -0.021079  -0.012313   0.229218
    2  N  1  S    0.435255  -0.001295  -0.044984  -0.185993   0.767234
    3  N  1  S    0.311065   0.015943   0.020777  -0.280010   0.178038
    4  N  1  X   -0.005299   0.467761  -0.051865   0.004995  -0.021170
    5  N  1  Y    0.007846  -0.009265   0.492630  -0.029675   0.002179
    6  N  1  Z    0.087128   0.007480  -0.033261   0.599293   0.640699
    7  N  1  X    0.005661   0.251051   0.044008  -0.003780   0.003475
    8  N  1  Y    0.012312   0.064124   0.210681   0.038662  -0.037473
    9  N  1  Z    0.014311  -0.001696   0.049136   0.383607  -0.076744
   10  N  1 XX   -0.001371   0.010325   0.003759  -0.009702   0.009454
   11  N  1 YY    0.000788  -0.010056  -0.004370  -0.013448  -0.009506
   12  N  1 ZZ    0.000583  -0.000268   0.000611   0.023150   0.000052
   13  N  1 XY   -0.004148  -0.007229  -0.016245   0.000265   0.043621
   14  N  1 XZ    0.001720   0.024087   0.002473  -0.002294  -0.003875
   15  N  1 YZ   -0.001854   0.005300   0.020132   0.001136   0.032804
   16  H  2  S    0.185434  -0.166396   0.351692   0.128255  -0.521540
   17  H  2  S   -0.000220  -0.012161   0.042900   0.030939  -0.058304
   18  H  2  X    0.021380   0.001832   0.030464   0.009400  -0.039351
   19  H  2  Y   -0.029561   0.025994  -0.021009  -0.012175   0.054186
   20  H  2  Z   -0.004372   0.006497  -0.010792   0.020860  -0.010732
   21  H  3  S    0.188210  -0.243511  -0.315328   0.094838  -0.484034
   22  H  3  S    0.003123  -0.080703  -0.063158   0.022000  -0.057942
   23  H  3  X    0.008313   0.012323  -0.012265   0.007538  -0.034242
   24  H  3  Y    0.032257  -0.023639  -0.018466   0.016860  -0.054469
   25  H  3  Z   -0.012284   0.011100   0.022856   0.017862  -0.010072
   26  H  4  S    0.188543   0.391579   0.015493   0.104437  -0.456137
   27  H  4  S    0.003942   0.093376   0.033425   0.028186  -0.054386
   28  H  4  X   -0.030695  -0.030141   0.005535  -0.015648   0.060644
   29  H  4  Y    0.012459   0.020044   0.017281   0.004496  -0.005910
   30  H  4  Z   -0.008616  -0.018740   0.006677   0.018387  -0.016142

                      6          7

    1  N  1  S    0.028308   0.054708
    2  N  1  S    0.058511   0.121821
    3  N  1  S   -0.030470  -0.115915
    4  N  1  X   -0.899586  -0.031592
    5  N  1  Y    0.025456   0.895757
    6  N  1  Z    0.016168  -0.039605
    7  N  1  X   -0.037035  -0.044178
    8  N  1  Y    0.039666   0.080142
    9  N  1  Z   -0.016523  -0.003992
   10  N  1 XX    0.003680  -0.036603
   11  N  1 YY   -0.008755   0.025754
   12  N  1 ZZ    0.005075   0.010849
   13  N  1 XY   -0.033081   0.007062
   14  N  1 XZ    0.034962   0.019670
   15  N  1 YZ   -0.015092  -0.041711
   16  H  2  S   -0.375221  -0.614534
   17  H  2  S   -0.068677  -0.115309
   18  H  2  X   -0.016781  -0.037542
   19  H  2  Y    0.036036   0.042277
   20  H  2  Z   -0.012014  -0.007515
   21  H  3  S   -0.337471   0.607046
   22  H  3  S   -0.109329   0.140275
   23  H  3  X    0.022358   0.036755
   24  H  3  Y   -0.035813   0.030181
   25  H  3  Z    0.017352  -0.002229
   26  H  4  S    0.681613   0.028625
   27  H  4  S    0.175905  -0.014906
   28  H  4  X   -0.053412  -0.012837
   29  H  4  Y    0.018339  -0.031409
   30  H  4  Z   -0.002275   0.019280

Actually Used Diabatic Molecualr Orbitals:

                      1          2          3          4          5

    1  N  1  S    0.007643   0.001367  -0.021079  -0.012313   0.229218
    2  N  1  S    0.435255  -0.001295  -0.044984  -0.185993   0.767234
    3  N  1  S    0.311065   0.015943   0.020777  -0.280010   0.178038
    4  N  1  X   -0.005299   0.467761  -0.051865   0.004995  -0.021170
    5  N  1  Y    0.007846  -0.009265   0.492630  -0.029675   0.002179
    6  N  1  Z    0.087128   0.007480  -0.033261   0.599293   0.640699
    7  N  1  X    0.005661   0.251051   0.044008  -0.003780   0.003475
    8  N  1  Y    0.012312   0.064124   0.210681   0.038662  -0.037473
    9  N  1  Z    0.014311  -0.001696   0.049136   0.383607  -0.076744
   10  N  1 XX   -0.001371   0.010325   0.003759  -0.009702   0.009454
   11  N  1 YY    0.000788  -0.010056  -0.004370  -0.013448  -0.009506
   12  N  1 ZZ    0.000583  -0.000268   0.000611   0.023150   0.000052
   13  N  1 XY   -0.004148  -0.007229  -0.016245   0.000265   0.043621
   14  N  1 XZ    0.001720   0.024087   0.002473  -0.002294  -0.003875
   15  N  1 YZ   -0.001854   0.005300   0.020132   0.001136   0.032804
   16  H  2  S    0.185434  -0.166396   0.351692   0.128255  -0.521540
   17  H  2  S   -0.000220  -0.012161   0.042900   0.030939  -0.058304
   18  H  2  X    0.021380   0.001832   0.030464   0.009400  -0.039351
   19  H  2  Y   -0.029561   0.025994  -0.021009  -0.012175   0.054186
   20  H  2  Z   -0.004372   0.006497  -0.010792   0.020860  -0.010732
[...]
      809    0.020779   -0.020779  20+2+0-
      751    0.020530   -0.020530  2+20002

 State #    3  Energy =     -55.753811225

      Det      Coef        Coefp    Occupancy (Ignoring core)
      ---      ----        ----    --------- --------- -----
       36   -0.796715   -0.796715  22+2000
       71   -0.532767    0.532767  2+22000
        1   -0.205106    0.205106  222+000
      823    0.065774   -0.065774  20+2002
      123    0.041996   -0.041996  +-2200+
      462    0.039508   -0.039508  2+02020
       74   -0.029861    0.029861  2022+00
      111   -0.028607    0.028607  +22-0+0
      285    0.027507   -0.027507  02+2200
      107    0.027139   -0.027139  +22-+00
      822    0.024178   -0.024178  2+02002
      808    0.023686   -0.023686  2+02+0-
      473    0.023547    0.023547  20+20-+
      249    0.023436   -0.023436  20+2200
       41   -0.023314    0.023314  22+-0+0
      142    0.022609    0.022609  22+0200
      824    0.022099    0.022099  -++2002
       89   -0.021504   -0.021504  -+2200+
       52    0.021473   -0.021473  220200+
      108   -0.021408   -0.021408  +2-2+00
      158    0.021039    0.021039  2-++-0+
      812   -0.020972    0.020972  2+020+-
      876   -0.020492   -0.020492  ++2200-
      821    0.020327   -0.020327  2++-002
      716    0.020275    0.020275  22+0002
       86    0.020064    0.020064  2+2-00+
      810    0.020036    0.020036  -++2+0-

 ---------------------------------------
    -DIABATIC STATES IN PROTOTYPES-     
 ---------------------------------------

     STATE:    1
 Group Ref#    Coefficients
     1    1    0.974025
     2    2   -0.002086
     3    3   -0.000330

WEIGHT OF LISTED PROTOTYPES:   94.87%

     STATE:    2
 Group Ref#    Coefficients
     1    1   -0.002086
     2    2    0.972759
     3    3    0.001695

WEIGHT OF LISTED PROTOTYPES:   94.63%

     STATE:    3
 Group Ref#    Coefficients
     1    1   -0.000330
     2    2    0.001695
     3    3    0.973733

WEIGHT OF LISTED PROTOTYPES:   94.82%

 --------------------------------------------------
 IN DIRECT MAX. DIABATIZATION FOR GMC-QDPT

 DIRECT MAXIMIZATION (DM) WITHOUT TRUNCATING ADIABATS
 EXPANSIONS INTO THE REFERENCE CONFIGURATION SPACE
 --------------------------------------------------

 -------------------------------------------
 - DM DIABT PT HAMILTONIAN MATRIX ELEMENTS -
 -------------------------------------------
                                            
 --- DIABATIC ENERGIES (DIAGONAL ELEMENT) ---       HARTREE            EV
 STATE #  1'S GMC-PT-LEVEL DIABATIC ENERGY=     -55.962828349       0.000000000
 STATE #  2'S GMC-PT-LEVEL DIABATIC ENERGY=     -55.802055753       4.374845161
 STATE #  3'S GMC-PT-LEVEL DIABATIC ENERGY=     -55.753811100       5.687649039

 --- DIABATIC COUPLINGS (OFF DIAGONAL ELEMENTS)---  HATREE            EV
 STATE #  1 &  2'S GMC-PT-LEVEL COUPLING  =      -0.007304693      -0.198770821
 STATE #  1 &  3'S GMC-PT-LEVEL COUPLING  =       0.037783491       1.028141170
 STATE #  2 &  3'S GMC-PT-LEVEL COUPLING  =      -0.074474888      -2.026564926

 ---------------------------------------
     - ROTATION TO DIABATIC STATES -    
 ---------------------------------------
 ROWS=ADIABATIC, COLUMNS=DIABATIC STATES

             1           2           3

    1    0.9818374  -0.0396480  -0.1855352
    2    0.1383150   0.8189504   0.5569463
    3   -0.1298623   0.5724930  -0.8095601

 ---------------------------------------
          - DIABATIC STATES -           
 ---------------------------------------

 State #    1  Energy =     -55.962828349

      Det      Coef        Coefp    Occupancy (Ignoring core)
      ---      ----        ----    --------- --------- -----
        1    0.955292   -0.955292  222+000
        8   -0.090266    0.090266  2-2+0+0
        3    0.088518    0.088518  22-++00
      141   -0.085996   -0.085996  22++-00
      393   -0.073486   -0.073486  202+020
       18    0.071849   -0.071849  2-2+00+
      717   -0.070127   -0.070127  220+002
      736   -0.067197    0.067197  2+2+00-
      386    0.060149   -0.060149  2+2+0-0
       16    0.057291   -0.057291  222000+
        7   -0.054781   -0.054781  22-+0+0
      351    0.052753    0.052753  22++0-0
       17    0.043726    0.043726  22-+00+
      708    0.038808   -0.038808  2-++0+-
      402    0.037635   -0.037635  2+-+0-+
      215   -0.036609   -0.036609  022+200
      218    0.034691   -0.034691  +-2+-+0
      390    0.034236   -0.034236  -+2++-0
      705   -0.033068   -0.033068  -2+++0-
      227   -0.033026   -0.033026  +2-+-0+
       76    0.030117    0.030117  2+2-0+0
      212    0.029263    0.029263  +220200
      113   -0.026612    0.026612  +-220+0
       51   -0.026477    0.026477  22+-00+
      179   -0.026162   -0.026162  202+200
      122    0.025048    0.025048  +2-200+
      773    0.023906   -0.023906  +2-++0-
      387   -0.023847    0.023847  2+20+-0
      424   -0.023769   -0.023769  +-2++-0
      184   -0.023299   -0.023299  -+2+-+0
     1051   -0.022897   -0.022897  2+++0--
      702    0.022729    0.022729  22+0+0-
      159    0.022574   -0.022574  -2++-0+
       29   -0.020217   -0.020217  2--+0++

 State #    2  Energy =     -55.802055753

      Det      Coef        Coefp    Occupancy (Ignoring core)
      ---      ----        ----    --------- --------- -----
       71   -0.958431    0.958431  2+22000
      246   -0.098452   -0.098452  2++2-00
       73    0.095347   -0.095347  2+-2+00
      736   -0.070270    0.070270  2+2+00-
      822    0.070224   -0.070224  2+02002
       86    0.067309    0.067309  2+2-00+
       77   -0.063656    0.063656  2+-20+0
      456    0.062791    0.062791  2++20-0
       88   -0.062069    0.062069  202200+
       36    0.046830    0.046830  22+2000
      813    0.043167   -0.043167  20+20+-
       74    0.037178   -0.037178  2022+00
      111    0.036979   -0.036979  +22-0+0
      320    0.036643    0.036643  0+22200
      323   -0.034591    0.034591  +022-+0
      810   -0.034038   -0.034038  -++2+0-
      332   -0.032508    0.032508  ++-2-0+
       76    0.031763    0.031763  2+2-0+0
       78    0.031645   -0.031645  20220+0
      180   -0.030370    0.030370  -+2+200
      317    0.030226   -0.030226  ++2-200
       99   -0.030224    0.030224  20-20++
      177    0.029371   -0.029371  2+20200
      183   -0.028135    0.028135  202+-+0
      113    0.025595   -0.025595  +-220+0
      807   -0.024703    0.024703  2++-+0-
        6    0.024366   -0.024366  22200+0
      391    0.024320   -0.024320  2+20020
      192   -0.024280    0.024280  2+-+-0+
      878    0.023638    0.023638  ++-2+0-
      264    0.022862   -0.022862  -++2-0+
       72   -0.022733   -0.022733  2+2-+00
      526   -0.022591   -0.022591  ++220-0
       38   -0.021169    0.021169  2202+00
      529    0.020860    0.020860  +022+-0
      122    0.020568    0.020568  +2-200+
      248    0.020241   -0.020241  2+02200
       81    0.020106    0.020106  202-++0

 State #    3  Energy =     -55.753811100

      Det      Coef        Coefp    Occupancy (Ignoring core)
      ---      ----        ----    --------- --------- -----
       36   -0.958769   -0.958769  22+2000
       38   -0.086082    0.086082  2202+00
       53   -0.078671   -0.078671  2-+200+
      463    0.075378   -0.075378  20+2020
      806    0.074414    0.074414  2++200-
       51    0.068199   -0.068199  22+-00+
      701   -0.065859   -0.065859  22++00-
      456   -0.053199   -0.053199  2++20-0
      106   -0.051330   -0.051330  +222000
       43    0.050044    0.050044  2-+20+0
       42    0.049653   -0.049653  22020+0
       71   -0.045431    0.045431  2+22000
      472   -0.042922   -0.042922  2+020-+
      121   -0.037014    0.037014  +22-00+
      285    0.036688   -0.036688  02+2200
      288   -0.035871   -0.035871  +-+2-+0
      460   -0.035867   -0.035867  -++2+-0
       73    0.035082   -0.035082  2+-2+00
      297    0.033284   -0.033284  +202-0+
      282    0.030970    0.030970  +2+-200
      145   -0.030740   -0.030740  -2++200
       64    0.030380   -0.030380  2-020++
      123    0.030341   -0.030341  +-2200+
      142    0.029154    0.029154  22+0200
      249    0.029094   -0.029094  20+2200
      112   -0.028608   -0.028608  +2-20+0
      457   -0.026871    0.026871  2++-+-0
      148   -0.026261   -0.026261  2-++-+0
       86    0.025936    0.025936  2+2-00+
       16   -0.025348    0.025348  222000+
      157    0.024907   -0.024907  220+-0+
      494    0.024208   -0.024208  +-+2+-0
      254    0.023787   -0.023787  -++2-+0
      716    0.020910    0.020910  22+0002
      356    0.020358    0.020358  22+0020
      843   -0.020309   -0.020309  +202+0-

 ---------------------------------------
      - DIABATIC STATES IN CMO -        
 ---------------------------------------

 State #    1  Energy =     -55.962828349

      Det      Coef        Coefp    Occupancy (Ignoring core)
      ---      ----        ----    --------- --------- -----
        1    0.953118   -0.953118  222+000
       71   -0.176104    0.176104  2+22000
       36   -0.127062   -0.127062  22+2000
      753   -0.073799   -0.073799  202+002
      357   -0.061332   -0.061332  220+020
        7    0.038899    0.038899  22-+0+0
      179   -0.038021   -0.038021  202+200
       18    0.033320   -0.033320  2-2+00+
      215   -0.032000   -0.032000  022+200
      742    0.031396    0.031396  2+-+0+-
      106   -0.030662   -0.030662  +222000
      368    0.027163    0.027163  2-++0-+
      738   -0.025869   -0.025869  2+-++0-
      123    0.025672   -0.025672  +-2200+
      739    0.025528    0.025528  202++0-
       86   -0.025323   -0.025323  2+2-00+
        4   -0.025159    0.025159  2-2++00
      740   -0.025148    0.025148  -+2++0-
      717   -0.024818   -0.024818  220+002
      754   -0.024145    0.024145  -+2+002
      214   -0.023609   -0.023609  +-2+200
      788    0.023153    0.023153  +-2+002
       41   -0.022565    0.022565  22+-0+0
      751    0.022391   -0.022391  2+20002
       16    0.022295   -0.022295  222000+
      143   -0.022249   -0.022249  220+200
      193   -0.021905    0.021905  202+-0+
      158   -0.021523   -0.021523  2-++-0+
      112    0.021197    0.021197  +2-20+0
      228   -0.021067    0.021067  +-2+-0+
      180    0.020907   -0.020907  -+2+200
      355   -0.020826   -0.020826  -2+++-0
        2    0.020577   -0.020577  2220+00
      789   -0.020229   -0.020229  022+002
        3   -0.020132   -0.020132  22-++00
      217   -0.020002   -0.020002  +2-+-+0

 State #    2  Energy =     -55.802055753

      Det      Coef        Coefp    Occupancy (Ignoring core)
      ---      ----        ----    --------- --------- -----
       71   -0.807615    0.807615  2+22000
       36    0.553767    0.553767  22+2000
        1   -0.075335    0.075335  222+000
      462    0.044822   -0.044822  2+02020
      249   -0.039466    0.039466  20+2200
      263   -0.038855   -0.038855  20+2-0+
      122    0.037783    0.037783  +2-200+
      823   -0.032859    0.032859  20+2002
      248    0.031794   -0.031794  2+02200
      111    0.029371   -0.029371  +22-0+0
      320    0.026198    0.026198  0+22200
      250    0.025715    0.025715  -++2200
      121   -0.024019    0.024019  +22-00+
      177    0.022434   -0.022434  2+20200
       87    0.021563   -0.021563  2+-200+
       76    0.021314    0.021314  2+2-0+0
      812    0.021227   -0.021227  2+020+-
      473    0.021021    0.021021  20+20-+
      193    0.020829   -0.020829  202+-0+
      809    0.020779   -0.020779  20+2+0-
      751    0.020530   -0.020530  2+20002

 State #    3  Energy =     -55.753811100

      Det      Coef        Coefp    Occupancy (Ignoring core)
      ---      ----        ----    --------- --------- -----
       36   -0.796715   -0.796715  22+2000
       71   -0.532767    0.532767  2+22000
        1   -0.205106    0.205106  222+000
      823    0.065774   -0.065774  20+2002
      123    0.041996   -0.041996  +-2200+
      462    0.039508   -0.039508  2+02020
       74   -0.029861    0.029861  2022+00
      111   -0.028607    0.028607  +22-0+0
      285    0.027507   -0.027507  02+2200
      107    0.027139   -0.027139  +22-+00
      822    0.024178   -0.024178  2+02002
      808    0.023686   -0.023686  2+02+0-
      473    0.023547    0.023547  20+20-+
      249    0.023436   -0.023436  20+2200
       41   -0.023314    0.023314  22+-0+0
      142    0.022609    0.022609  22+0200
      824    0.022099    0.022099  -++2002
       89   -0.021504   -0.021504  -+2200+
       52    0.021473   -0.021473  220200+
      108   -0.021408   -0.021408  +2-2+00
      158    0.021039    0.021039  2-++-0+
      812   -0.020972    0.020972  2+020+-
      876   -0.020492   -0.020492  ++2200-
      821    0.020327   -0.020327  2++-002
      716    0.020275    0.020275  22+0002
       86    0.020064    0.020064  2+2-00+
      810    0.020036    0.020036  -++2+0-

 ---------------------------------------
    -DIABATIC STATES IN PROTOTYPES-     
 ---------------------------------------

     STATE:    1
 Group Ref#    Coefficients
     1    1    0.974025
     2    2   -0.002084
     3    3   -0.000330

WEIGHT OF LISTED PROTOTYPES:   94.87%

     STATE:    2
 Group Ref#    Coefficients
     1    1   -0.002087
     2    2    0.972759
     3    3    0.001695

WEIGHT OF LISTED PROTOTYPES:   94.63%

     STATE:    3
 Group Ref#    Coefficients
     1    1   -0.000330
     2    2    0.001694
     3    3    0.973733

WEIGHT OF LISTED PROTOTYPES:   94.82%

     DIRECT MAX. DIABATIZATION FINISHED    
 CPU     0: STEP CPU TIME=     0.25 TOTAL CPU TIME=         13.4 (      0.2 MIN)
 TOTAL WALL CLOCK TIME=         13.4 SECONDS, CPU UTILIZATION IS    99.93%

DIABATS FOR SPIN-ORBIT CALCULATION ARE READY

TRANSITION DIPOLES BETWEEN ADIABATS (in A.U.):

STATE PAIR      X         Y         Z
    1    1  0.068163 -0.260750  0.735154
    2    1 -0.026128 -0.035476  0.071485
    2    2 -0.080845 -0.108425  0.270962
    3    1  0.065192 -0.077304 -0.066151
    3    2 -0.164130 -0.029352  0.001126
    3    3  0.185423 -0.531327  0.248972


TRANSITION DIPOLES BETWEEN DIABATS (in A.U.):

STATE PAIR      X         Y         Z
    1    1  0.049465 -0.251266  0.754319
    2    1 -0.005023 -0.034013  0.003099
    2    2 -0.148508 -0.268980  0.263901
    3    1 -0.032766  0.029791  0.001163
    3    2 -0.066112  0.216886  0.005682
    3    3  0.271783 -0.380255  0.236868

TRANSITION DIPOLES BETWEEN DIRECT MAX. DIABATS (in A.U.):

STATE PAIR      X         Y         Z
    1    1  0.049465 -0.251267  0.754319
    2    1 -0.005024 -0.034013  0.003098
    2    2 -0.148508 -0.268980  0.263901
    3    1 -0.032766  0.029792  0.001163
    3    2 -0.066111  0.216886  0.005682
    3    3  0.271783 -0.380255  0.236868
 No $TRANST Group Found.
 Quit without doing spin-orbit coupling
 ..... DONE WITH MP2 ENERGY .....
 CPU     0: STEP CPU TIME=     0.00 TOTAL CPU TIME=         13.4 (      0.2 MIN)
 TOTAL WALL CLOCK TIME=         13.4 SECONDS, CPU UTILIZATION IS    99.85%
            100000000  WORDS OF DYNAMIC MEMORY USED
 EXECUTION OF GAMESS TERMINATED NORMALLY Wed Nov 16 18:45:49 2022
 DDI: 715512 bytes (0.7 MB / 0 MWords) used by master data server.

 ----------------------------------------
 CPU timing information for all processes
 ========================================
 0: 13.128 + 0.288 = 13.416
 ----------------------------------------
Note: The following floating-point exceptions are signalling: IEEE_DENORMAL
 ddikick.x: exited gracefully.
unset echo
----- accounting info -----
Files used on the master node io002 were:
-rw-r--r-- 1 bsonghao nooijen   20729 Nov 16 18:45 /scratch/bsonghao/nh3_diabatization_2d_at_mode_7_8_dist-0.5_0.1.F05
-rw-r--r-- 1 bsonghao nooijen  363520 Nov 16 18:45 /scratch/bsonghao/nh3_diabatization_2d_at_mode_7_8_dist-0.5_0.1.F09
-rw-r--r-- 1 bsonghao nooijen 1995920 Nov 16 18:45 /scratch/bsonghao/nh3_diabatization_2d_at_mode_7_8_dist-0.5_0.1.F10
-rw-r--r-- 1 bsonghao nooijen  131264 Nov 16 18:45 /scratch/bsonghao/nh3_diabatization_2d_at_mode_7_8_dist-0.5_0.1.F13
-rw-r--r-- 1 bsonghao nooijen  180312 Nov 16 18:45 /scratch/bsonghao/nh3_diabatization_2d_at_mode_7_8_dist-0.5_0.1.F15
-rw-r--r-- 1 bsonghao nooijen       0 Nov 16 18:45 /scratch/bsonghao/nh3_diabatization_2d_at_mode_7_8_dist-0.5_0.1.F16
-rw-r--r-- 1 bsonghao nooijen    9808 Nov 16 18:45 /scratch/bsonghao/nh3_diabatization_2d_at_mode_7_8_dist-0.5_0.1.F70
-rw-r--r-- 1 bsonghao nooijen    9808 Nov 16 18:45 /scratch/bsonghao/nh3_diabatization_2d_at_mode_7_8_dist-0.5_0.1.F71
-rw-r--r-- 1 bsonghao nooijen   19608 Nov 16 18:45 /scratch/bsonghao/nh3_diabatization_2d_at_mode_7_8_dist-0.5_0.1.F72
-rw-r--r-- 1 bsonghao nooijen   19608 Nov 16 18:45 /scratch/bsonghao/nh3_diabatization_2d_at_mode_7_8_dist-0.5_0.1.F73
-rw-r--r-- 1 bsonghao nooijen 1920824 Nov 16 18:45 /scratch/bsonghao/nh3_diabatization_2d_at_mode_7_8_dist-0.5_0.1.F74
-rw-r--r-- 1 bsonghao nooijen       0 Nov 16 18:45 /scratch/bsonghao/nh3_diabatization_2d_at_mode_7_8_dist-0.5_0.1.F75
-rw-r--r-- 1 bsonghao nooijen   58848 Nov 16 18:45 /scratch/bsonghao/nh3_diabatization_2d_at_mode_7_8_dist-0.5_0.1.F76
-rw-r--r-- 1 bsonghao nooijen       0 Nov 16 18:45 /scratch/bsonghao/nh3_diabatization_2d_at_mode_7_8_dist-0.5_0.1.F77
-rw-r--r-- 1 bsonghao nooijen    1864 Nov 16 18:45 /scratch/bsonghao/nh3_diabatization_2d_at_mode_7_8_dist-0.5_0.1.F78
-rw-r--r-- 1 bsonghao nooijen   39208 Nov 16 18:45 /scratch/bsonghao/nh3_diabatization_2d_at_mode_7_8_dist-0.5_0.1.F79
-rw-r--r-- 1 bsonghao nooijen     104 Nov 16 18:45 /scratch/bsonghao/nh3_diabatization_2d_at_mode_7_8_dist-0.5_0.1.F80
-rw-r--r-- 1 bsonghao nooijen   13472 Nov 16 18:45 /scratch/bsonghao/nh3_diabatization_2d_at_mode_7_8_dist-0.5_0.1.F81
-rw-r--r-- 1 bsonghao nooijen      16 Nov 16 18:45 /scratch/bsonghao/nh3_diabatization_2d_at_mode_7_8_dist-0.5_0.1.F82
-rw-r--r-- 1 bsonghao nooijen   19216 Nov 16 18:45 /scratch/bsonghao/nh3_diabatization_2d_at_mode_7_8_dist-0.5_0.1.F83
-rw-r--r-- 1 bsonghao nooijen   29712 Nov 16 18:45 /scratch/bsonghao/nh3_diabatization_2d_at_mode_7_8_dist-0.5_0.1.F84
-rw-r--r-- 1 bsonghao nooijen  401576 Nov 16 18:45 /scratch/bsonghao/nh3_diabatization_2d_at_mode_7_8_dist-0.5_0.1.F85
-rw-r--r-- 1 bsonghao nooijen  903672 Nov 16 18:45 /scratch/bsonghao/nh3_diabatization_2d_at_mode_7_8_dist-0.5_0.1.F86
-rw-r--r-- 1 bsonghao nooijen     656 Nov 16 18:45 /scratch/bsonghao/nh3_diabatization_2d_at_mode_7_8_dist-0.5_0.1.F87
-rw-r--r-- 1 bsonghao nooijen   33616 Nov 16 18:45 /scratch/bsonghao/nh3_diabatization_2d_at_mode_7_8_dist-0.5_0.1.F88
-rw-r--r-- 1 bsonghao nooijen     240 Nov 16 18:45 /scratch/bsonghao/nh3_diabatization_2d_at_mode_7_8_dist-0.5_0.1.F89
-rw-r--r-- 1 bsonghao nooijen       0 Nov 16 18:45 /scratch/bsonghao/nh3_diabatization_2d_at_mode_7_8_dist-0.5_0.1.F90
-rw-r--r-- 1 bsonghao nooijen   13760 Nov 16 18:45 /scratch/bsonghao/nh3_diabatization_2d_at_mode_7_8_dist-0.5_0.1.F91
-rw-r--r-- 1 bsonghao nooijen   22776 Nov 16 18:45 /scratch/bsonghao/nh3_diabatization_2d_at_mode_7_8_dist-0.5_0.1.F92
-rw-r--r-- 1 bsonghao nooijen   23168 Nov 16 18:45 /scratch/bsonghao/nh3_diabatization_2d_at_mode_7_8_dist-0.5_0.1.F93
-rw-r--r-- 1 bsonghao nooijen   22776 Nov 16 18:45 /scratch/bsonghao/nh3_diabatization_2d_at_mode_7_8_dist-0.5_0.1.F94
-rw-r--r-- 1 bsonghao nooijen   13760 Nov 16 18:45 /scratch/bsonghao/nh3_diabatization_2d_at_mode_7_8_dist-0.5_0.1.F95
-rw-r--r-- 1 bsonghao nooijen   29440 Nov 16 18:45 /scratch/bsonghao/nh3_diabatization_2d_at_mode_7_8_dist-0.5_0.1.F96
-rw-r--r-- 1 bsonghao nooijen    1184 Nov 16 18:45 /scratch/bsonghao/nh3_diabatization_2d_at_mode_7_8_dist-0.5_0.1.F97
-rw-r--r-- 1 bsonghao nooijen    9808 Nov 16 18:45 /scratch/bsonghao/nh3_diabatization_2d_at_mode_7_8_dist-0.5_0.1.F98
-rw-r--r-- 1 bsonghao nooijen   30264 Nov 16 18:45 /scratch/bsonghao/nh3_diabatization_2d_at_mode_7_8_dist-0.5_0.1.F99
ls: No match.
ls: No match.
ls: No match.
Wed 16 Nov 2022 06:45:52 PM EST
0.293u 0.037s 0:16.79 1.9%	0+0k 48+224io 0pf+0w
