----- GAMESS execution script 'rungms' -----
This job is running on host io002
under operating system Linux at Wed 16 Nov 2022 07:55:33 PM EST
Available scratch disk space (Kbyte units) at beginning of the job is
Filesystem       1K-blocks       Used   Available Use% Mounted on
/dev/sdc1      15378471580 3278917120 11318349060  23% /scratch
GAMESS temporary binary files will be written to /scratch/bsonghao
GAMESS supplementary output files will be written to /home/bsonghao/.gamess_ascii_files/267638
Copying input file nh3_diabatization_2d_at_mode_7_8_dist0.4_0.5.inp to your run's scratch directory...
cp nh3_diabatization_2d_at_mode_7_8_dist0.4_0.5.inp /scratch/bsonghao/nh3_diabatization_2d_at_mode_7_8_dist0.4_0.5.F05
unset echo
/home/bjb2chen/gamess/ddikick.x /home/bjb2chen/gamess/gamess.00.x nh3_diabatization_2d_at_mode_7_8_dist0.4_0.5 -ddi 1 1 io002 -scr /scratch/bsonghao

 Distributed Data Interface kickoff program.
 Initiating 1 compute processes on 1 nodes to run the following command:
 /home/bjb2chen/gamess/gamess.00.x nh3_diabatization_2d_at_mode_7_8_dist0.4_0.5 

          ******************************************************
          *         GAMESS VERSION = 02 AUG 2018 (R2)         *
          *             FROM IOWA STATE UNIVERSITY             *
          * M.W.SCHMIDT, K.K.BALDRIDGE, J.A.BOATZ, S.T.ELBERT, *
          *   M.S.GORDON, J.H.JENSEN, S.KOSEKI, N.MATSUNAGA,   *
          *          K.A.NGUYEN, S.J.SU, T.L.WINDUS,           *
          *       TOGETHER WITH M.DUPUIS, J.A.MONTGOMERY       *
          *         J.COMPUT.CHEM.  14, 1347-1363(1993)        *
          **************** 64 BIT LINUX VERSION ****************

  SINCE 1993, STUDENTS AND POSTDOCS WORKING AT IOWA STATE UNIVERSITY
  AND ALSO IN THEIR VARIOUS JOBS AFTER LEAVING ISU HAVE MADE IMPORTANT
  CONTRIBUTIONS TO THE CODE:
     IVANA ADAMOVIC, CHRISTINE AIKENS, YURI ALEXEEV, POOJA ARORA,
     ANDREY ASADCHEV, ROB BELL, PRADIPTA BANDYOPADHYAY, JONATHAN BENTZ,
     BRETT BODE, KURT BRORSEN, CALEB CARLIN, GALINA CHABAN, WEI CHEN,
     CHEOL HO CHOI, PAUL DAY, ALBERT DEFUSCO, NUWAN DESILVA, TIM DUDLEY,
     DMITRI FEDOROV, ALEX FINDLATER, GRAHAM FLETCHER, MARK FREITAG,
     KURT GLAESEMANN, ANASTASIA GUININA,
     DAN KEMP, GRANT MERRILL, NORIYUKI MINEZAWA, JONATHAN MULLIN,
     TAKESHI NAGATA, SEAN NEDD, HEATHER NETZLOFF, BOSILJKA NJEGIC, RYAN OLSON,
     MIKE PAK, BUU PHAM,
     SPENCER PRUITT, LUKE ROSKOP, JIM SHOEMAKER, LYUDMILA SLIPCHENKO,
     TONY SMITH, SAROM SOK LEANG, JIE SONG, TETSUYA TAKETSUGU, SIMON WEBB,
     PENG XU, SOOHAENG YOO, FEDERICO ZAHARIEV

  ADDITIONAL CODE HAS BEEN PROVIDED BY COLLABORATORS IN OTHER GROUPS:
     IOWA STATE UNIVERSITY:
          JOE IVANIC, AARON WEST, LAIMUTIS BYTAUTAS, KLAUS RUEDENBERG
     UNIVERSITY OF TOKYO: KIMIHIKO HIRAO, TAKAHITO NAKAJIMA,
          TAKAO TSUNEDA, MUNEAKI KAMIYA, SUSUMU YANAGISAWA,
          KIYOSHI YAGI, MAHITO CHIBA, SEIKEN TOKURA, NAOAKI KAWAKAMI
     UNIVERSITY OF AARHUS: FRANK JENSEN
     UNIVERSITY OF IOWA: VISVALDAS KAIRYS, HUI LI
     NATIONAL INST. OF STANDARDS AND TECHNOLOGY: WALT STEVENS, DAVID GARMER
     UNIVERSITY OF PISA: BENEDETTA MENNUCCI, JACOPO TOMASI
     UNIVERSITY OF MEMPHIS: HENRY KURTZ, PRAKASHAN KORAMBATH
     UNIVERSITY OF ALBERTA: TOBY ZENG, MARIUSZ KLOBUKOWSKI
     UNIVERSITY OF NEW ENGLAND: MARK SPACKMAN
     MIE UNIVERSITY: HIROAKI UMEDA
     NAT. INST. OF ADVANCED INDUSTRIAL SCIENCE AND TECHNOLOGY: KAZUO KITAURA
     MICHIGAN STATE UNIVERSITY:
          KAROL KOWALSKI, MARTA WLOCH, JEFFREY GOUR, JESSE LUTZ,
          WEI LI, JUN SHEN, J. EMILIANO DEUSTUA, PIOTR PIECUCH
     UNIVERSITY OF MINNESOTA:
          YINAN SHU
     UNIVERSITY OF SILESIA: MONIKA MUSIAL, STANISLAW KUCHARSKI
     FACULTES UNIVERSITAIRES NOTRE-DAME DE LA PAIX:
          OLIVIER QUINET, BENOIT CHAMPAGNE
     UNIVERSITY OF CALIFORNIA - SANTA BARBARA: BERNARD KIRTMAN
     INSTITUTE FOR MOLECULAR SCIENCE:
          KAZUYA ISHIMURA, MICHIO KATOUDA, AND SHIGERU NAGASE
     UNIVERSITY OF NOTRE DAME: ANNA POMOGAEVA, DAN CHIPMAN
     KYUSHU UNIVERSITY:
          HARUYUKI NAKANO,
          FENG LONG GU, JACEK KORCHOWIEC, MARCIN MAKOWSKI, AND YURIKO AOKI,
          HIROTOSHI MORI AND EISAKU MIYOSHI
     PENNSYLVANIA STATE UNIVERSITY:
          TZVETELIN IORDANOV, CHET SWALINA, JONATHAN SKONE,
          SHARON HAMMES-SCHIFFER
     WASEDA UNIVERSITY:
          MASATO KOBAYASHI, TOMOKO AKAMA, TSUGUKI TOUMA,
          TAKESHI YOSHIKAWA, YASUHIRO IKABATA, JUNJI SEINO,
          YUYA NAKAJIMA, HIROMI NAKAI
     NANJING UNIVERSITY: SHUHUA LI
     UNIVERSITY OF NEBRASKA:
          PEIFENG SU, DEJUN SI, NANDUN THELLAMUREGE, YALI WANG, HUI LI
     UNIVERSITY OF ZURICH: ROBERTO PEVERATI, KIM BALDRIDGE
     N. COPERNICUS UNIVERSITY AND JACKSON STATE UNIVERSITY:
          MARIA BARYSZ
     UNIVERSITY OF COPENHAGEN: Jimmy Kromann, CASPER STEINMANN
     TOKYO INSTITUTE OF TECHNOLOGY: HIROYA NAKATA
     NAGOYA UNIVERSITY: YOSHIO NISHIMOTO, STEPHAN IRLE
     MOSCOW STATE UNIVERSITY: VLADIMIR MIRONOV

 EXECUTION OF GAMESS BEGUN Wed Nov 16 19:55:33 2022

            ECHO OF THE FIRST FEW INPUT CARDS -
 INPUT CARD> $system kdiag=3 mwords=100 memddi=1000 parall=.t. $end                         
 INPUT CARD> $contrl runtyp=energy ispher=1 $end                                            
 INPUT CARD> $contrl icut=9 itol=20 inttyp=rysquad qmttol=1.0d-05 nosym=1 $end              
 INPUT CARD> $scf    npunch=2 conv=1.0d-06 dirscf=.t.      $end                             
 INPUT CARD> $contrl scftyp=mcscf  mult=2 maxit=200 icharg=1 mplevl=2 $end                  
 INPUT CARD> $guess  guess=moread norb=29 purify=.t. $end                                   
 INPUT CARD> $basis  gbasis=ccd $end                                                        
 INPUT CARD> $mcscf  cistep=gmcci fullnr=.t. finci=mos                                      
 INPUT CARD>         acurcy=1.d-6 maxit=100 $end                                            
 INPUT CARD> $trans  dirtrf=.t. $end                                                        
 INPUT CARD> $mrmp   mrpt=gmcpt rdvecs=.f. $end                                             
 INPUT CARD> $gmcpt  nmofzc=0 nmodoc=1 nmoact=7 nelact=7 stsym(1)=A                         
 INPUT CARD>         reftyp=ormas nspace=1 mstart(1)=2 mine(1)=7 maxe(1)=7                  
 INPUT CARD>         kstate(1)=1,1,1                                                        
 INPUT CARD>         wstate(1)=1,1,1                                                        
 INPUT CARD>         iwgt=0 thrwgt=-1.0 krot=.f. kszdoe=.f. knospn=.f.                      
 INPUT CARD>         thrde=-1.0 edshft=0.02 $end                                            
 INPUT CARD> $data                                                                          
 INPUT CARD> NH3+ 3 states calculation at NH3 structure.                                    
 INPUT CARD> c1                                                                             
 INPUT CARD>N 7.0 -0.03114459 -0.02491561200000001 -0.1693809542                            
 INPUT CARD>H 1.0 -0.057909816999999975 1.0241867388 0.28191099510000006                    
 INPUT CARD>H 1.0 -0.36361109500000005 -0.9698788538 0.09902508509999997                    
 INPUT CARD>H 1.0 0.85428333 0.2919029860000001 0.3884487391                                
 INPUT CARD>$end                                                                            
 INPUT CARD>--- OPTIMIZED RHF      MO-S --- GENERATED AT Mon Nov 14 16:47:08 2022           
 INPUT CARD>E=      -56.3825050291, E(NUC)=   11.8429239490                                 
 INPUT CARD> $VEC                                                                           
 INPUT CARD> 1  1-1.00134066E+00-2.25158504E-03 3.44925845E-03 0.00000000E+00 0.00000000E+00
 INPUT CARD> 1  2-2.13170927E-03 0.00000000E+00 0.00000000E+00 6.57129898E-04-6.87950443E-05
 INPUT CARD> 1  3-6.87950443E-05 1.37590089E-04 0.00000000E+00 0.00000000E+00 0.00000000E+00
 INPUT CARD> 1  4 3.25502815E-04-4.84772356E-04 3.62525460E-04-6.27912517E-04-3.45956485E-04
 INPUT CARD> 1  5 3.25502815E-04-4.84772356E-04 3.62525460E-04 6.27912517E-04-3.45956485E-04
 INPUT CARD> 1  6 3.25502815E-04-4.84772356E-04-7.25050921E-04 0.00000000E+00-3.45956485E-04
 INPUT CARD> 2  1 1.31286642E-02-4.05911371E-01-2.82090992E-01 0.00000000E+00 0.00000000E+00
 INPUT CARD> 2  2-7.71489043E-02 0.00000000E+00 0.00000000E+00 9.73717494E-03 6.62450916E-04
 INPUT CARD> 2  3 6.62450916E-04-1.32490183E-03 0.00000000E+00 0.00000000E+00 0.00000000E+00
 INPUT CARD> 2  4-1.96090317E-01-1.96656153E-02-1.74855877E-02 3.02859263E-02 8.68214399E-03
 INPUT CARD> 2  5-1.96090317E-01-1.96656153E-02-1.74855877E-02-3.02859263E-02 8.68214399E-03
 INPUT CARD> 2  6-1.96090317E-01-1.96656153E-02 3.49711754E-02 0.00000000E+00 8.68214399E-03
 INPUT CARD> 3  1 0.00000000E+00 0.00000000E+00 0.00000000E+00 4.48608762E-01 0.00000000E+00
 INPUT CARD> 3  2 0.00000000E+00 2.18692520E-01 0.00000000E+00 0.00000000E+00 1.30198027E-02
 INPUT CARD> 3  3-1.30198027E-02 0.00000000E+00 0.00000000E+00 2.71832968E-02 0.00000000E+00
 INPUT CARD> 3  4-1.85332726E-01-7.03958951E-02 8.47929477E-03 1.95242443E-02 8.32835058E-03
 INPUT CARD> 3  5-1.85332726E-01-7.03958951E-02 8.47929477E-03-1.95242443E-02 8.32835058E-03
 INPUT CARD> 3  6 3.70665453E-01 1.40791790E-01-2.53376884E-02 0.00000000E+00-1.66567012E-02
 INPUT CARD> 4  1 0.00000000E+00 0.00000000E+00 0.00000000E+00 0.00000000E+00 4.48608762E-01
 INPUT CARD> 4  2 0.00000000E+00 0.00000000E+00 2.18692520E-01 0.00000000E+00 0.00000000E+00
 INPUT CARD> 4  3 0.00000000E+00 0.00000000E+00-1.50339731E-02 0.00000000E+00 2.71832968E-02
 INPUT CARD> 4  4 3.21005698E-01 1.21929267E-01 1.95242443E-02-1.40653607E-02-1.44251263E-02
  100000000 WORDS OF MEMORY AVAILABLE

     BASIS OPTIONS
     -------------
     GBASIS=CCD          IGAUSS=       0      POLAR=NONE    
     NDFUNC=       0     NFFUNC=       0     DIFFSP=       F
     NPFUNC=       0      DIFFS=       F     BASNAM=        


     RUN TITLE
     ---------
  NH3+ 3 states calculation at NH3 structure.                                    

 THE POINT GROUP OF THE MOLECULE IS C1      
 THE ORDER OF THE PRINCIPAL AXIS IS     0

 ATOM      ATOMIC                      COORDINATES (BOHR)
           CHARGE         X                   Y                   Z
 N           7.0    -0.0588547411       -0.0470836795       -0.3200835910
 H           1.0    -0.1094336861        1.9354322966        0.5327345337
 H           1.0    -0.6871253356       -1.8328052750        0.1871302767
 H           1.0     1.6143614096        0.5516166585        0.7340616772

          INTERNUCLEAR DISTANCES (ANGS.)
          ------------------------------

                1 N          2 H          3 H          4 H     

   1 N       0.0000000    1.1423645 *  1.0370783 *  1.0934032 *
   2 H       1.1423645 *  0.0000000    2.0256352 *  1.1746004 *
   3 H       1.0370783 *  2.0256352 *  0.0000000    1.7773931 *
   4 H       1.0934032 *  1.1746004 *  1.7773931 *  0.0000000  

  * ... LESS THAN  3.000


     ATOMIC BASIS SET
     ----------------
 THE CONTRACTED PRIMITIVE FUNCTIONS HAVE BEEN UNNORMALIZED
 THE CONTRACTED BASIS FUNCTIONS ARE NOW NORMALIZED TO UNITY

  SHELL TYPE  PRIMITIVE        EXPONENT          CONTRACTION COEFFICIENT(S)

 N         

      1   S       1          9046.0000000    0.000699617413
      1   S       2          1357.0000000    0.005386054630
      1   S       3           309.3000000    0.027391021189
      1   S       4            87.7300000    0.103150591982
      1   S       5            28.5600000    0.278570663317
      1   S       6            10.2100000    0.448294849454
      1   S       7             3.8380000    0.278085928395
      1   S       8             0.7466000    0.015431561233

      2   S       9          9046.0000000   -0.000304990096
      2   S      10          1357.0000000   -0.002408026379
      2   S      11           309.3000000   -0.011944448725
      2   S      12            87.7300000   -0.048925992909
      2   S      13            28.5600000   -0.134472724725
      2   S      14            10.2100000   -0.315112577700
      2   S      15             3.8380000   -0.242857832550
      2   S      16             0.7466000    1.094382206854

      3   S      17             0.2248000    1.000000000000

      4   P      18            13.5500000    0.058905676772
      4   P      19             2.9170000    0.320461106714
      4   P      20             0.7973000    0.753042061792

      5   P      21             0.2185000    1.000000000000

      6   D      22             0.8170000    1.000000000000

 H         

      7   S      23            13.0100000    0.033498726390
      7   S      24             1.9620000    0.234800801174
      7   S      25             0.4446000    0.813682957883

      8   S      26             0.1220000    1.000000000000

      9   P      27             0.7270000    1.000000000000

 H         

     10   S      28            13.0100000    0.033498726390
     10   S      29             1.9620000    0.234800801174
     10   S      30             0.4446000    0.813682957883

     11   S      31             0.1220000    1.000000000000

     12   P      32             0.7270000    1.000000000000

 H         

     13   S      33            13.0100000    0.033498726390
     13   S      34             1.9620000    0.234800801174
     13   S      35             0.4446000    0.813682957883

     14   S      36             0.1220000    1.000000000000

     15   P      37             0.7270000    1.000000000000

 TOTAL NUMBER OF BASIS SET SHELLS             =   15
 NUMBER OF CARTESIAN GAUSSIAN BASIS FUNCTIONS =   30
 NOTE: THIS RUN WILL RESTRICT THE MO VARIATION SPACE TO SPHERICAL HARMONICS.
 THE NUMBER OF ORBITALS KEPT IN THE VARIATIONAL SPACE WILL BE PRINTED LATER.
 NUMBER OF ELECTRONS                          =    9
 CHARGE OF MOLECULE                           =    1
 SPIN MULTIPLICITY                            =    2
 NUMBER OF OCCUPIED ORBITALS (ALPHA)          =    5
 NUMBER OF OCCUPIED ORBITALS (BETA )          =    4
 TOTAL NUMBER OF ATOMS                        =    4
 THE NUCLEAR REPULSION ENERGY IS       11.2117051496

     $CONTRL OPTIONS
     ---------------
 SCFTYP=MCSCF        RUNTYP=ENERGY       EXETYP=RUN     
 MPLEVL=       2     CITYP =NONE         CCTYP =NONE         VBTYP =NONE    
 DFTTYP=NONE         TDDFT =NONE    
 MULT  =       2     ICHARG=       1     NZVAR =       0     COORD =UNIQUE  
 PP    =NONE         RELWFN=NONE         LOCAL =NONE         NUMGRD=       F
 ISPHER=       1     NOSYM =       1     MAXIT =     200     UNITS =ANGS    
 PLTORB=       F     MOLPLT=       F     AIMPAC=       F     FRIEND=        
 NPRINT=       7     IREST =       0     GEOM  =INPUT   
 NORMF =       0     NORMP =       0     ITOL  =      20     ICUT  =       9
 INTTYP=RYSQUAD      GRDTYP=BEST         QMTTOL= 1.0E-05

     $SYSTEM OPTIONS
     ---------------
  REPLICATED MEMORY=   100000000 WORDS (ON EVERY NODE).
 DISTRIBUTED MEMDDI=        1000 MILLION WORDS IN AGGREGATE,
 MEMDDI DISTRIBUTED OVER   1 PROCESSORS IS  1000000000 WORDS/PROCESSOR.
 TOTAL MEMORY REQUESTED ON EACH PROCESSOR=  1100000000 WORDS.
 TIMLIM=      525600.00 MINUTES, OR     365.0 DAYS.
 PARALL= T  BALTYP=  DLB     KDIAG=    3  COREFL= F
 MXSEQ2=     300 MXSEQ3=     150  mem10=         0

          ----------------
          PROPERTIES INPUT
          ----------------

     MOMENTS            FIELD           POTENTIAL          DENSITY
 IEMOM =       1   IEFLD =       0   IEPOT =       0   IEDEN =       0
 WHERE =COMASS     WHERE =NUCLEI     WHERE =NUCLEI     WHERE =NUCLEI  
 OUTPUT=BOTH       OUTPUT=BOTH       OUTPUT=BOTH       OUTPUT=BOTH    
 IEMINT=       0   IEFINT=       0                     IEDINT=       0
                                                       MORB  =       0

     -------------------------------
     INTEGRAL TRANSFORMATION OPTIONS
     -------------------------------
     NWORD  =            0
     CUTOFF = 1.0E-09     MPTRAN =       0
     DIRTRF =       T     AOINTS =DUP     

          ----------------------
          MCSCF INPUT PARAMETERS
          ----------------------
 CONVERGER SELECTION: FOCAS = F  SOSCF = F  FULLNR = T  QUD = F  JACOBI = F
 SECULAR EQUATION METHOD CISTEP = GMCCI   
 --- GENERAL INPUT OPTIONS:
 MAXIT =     100  MICIT =       1  ACURCY= 1.000E-06
 DAMP  =   0.000  CANONC=       T  ENGTOL= 1.000E-10
 EKT   =       F  NPUNCH=       2  NWORD =         0
 REGENERATE CI AFTER CONVERGENCE = NONE    
 DIABATIZATION AFTER CONVERGENCE =        F
 --- INPUT FOR FULLNR CONVERGER:
 METHOD=DM2       FORS  =       F  DROPC =       T
 LINSER=       F  FCORE =       F  NORB  =      30

          ----------------------
          INTEGRAL INPUT OPTIONS
          ----------------------
 NOPK  =       1 NORDER=       0 SCHWRZ=       T

 ------------------------------------------
 MULTIREFERENCE PERTURBATION THEORY CONTROL
 ------------------------------------------
 MRPT=GMCPT    READ CONVERGED MCSCF VECTORS= F


     ------------------------------------------
     THE POINT GROUP IS C1 , NAXIS= 1, ORDER= 1
     ------------------------------------------

 -- VARIATIONAL SPACE WILL BE RESTRICTED TO PURE SPHERICAL HARMONICS ONLY --
 AFTER EXCLUDING CONTAMINANT COMBINATIONS FROM THE CARTESIAN GAUSSIAN BASIS
 SET, THE NUMBER OF SPHERICAL HARMONICS KEPT IN THE VARIATION SPACE IS   29

     DIMENSIONS OF THE SYMMETRY SUBSPACES ARE
 A   =   29

 ..... DONE SETTING UP THE RUN .....
 CPU     0: STEP CPU TIME=     0.03 TOTAL CPU TIME=          0.0 (      0.0 MIN)
 TOTAL WALL CLOCK TIME=          0.0 SECONDS, CPU UTILIZATION IS    75.00%

          ********************
          1 ELECTRON INTEGRALS
          ********************
 TIME TO DO   DIPOLE INTEGRALS=      0.00
 ...... END OF ONE-ELECTRON INTEGRALS ......
 CPU     0: STEP CPU TIME=     0.00 TOTAL CPU TIME=          0.0 (      0.0 MIN)
 TOTAL WALL CLOCK TIME=          0.0 SECONDS, CPU UTILIZATION IS    75.00%

          -------------
          GUESS OPTIONS
          -------------
          GUESS =MOREAD            NORB  =      29          NORDER=       0
          MIX   =       F          PRTMO =       F          PUNMO =       F
          TOLZ  = 1.0E-08          TOLE  = 1.0E-05
          SYMDEN=       F          PURIFY=       T

 INITIAL GUESS ORBITALS GENERATED BY MOREAD   ROUTINE.

 STATISTICS FOR GENERATION OF SYMMETRY ORBITAL -Q- MATRIX
 NUMBER OF CARTESIAN ATOMIC ORBITALS=         30
 NUMBER OF SPHERICAL CONTAMINANTS DROPPED=     1
 NUMBER OF LINEARLY DEPENDENT MOS DROPPED=     0
 TOTAL NUMBER OF MOS IN VARIATION SPACE=      29
 ORBITAL PURIFICATION WILL OCCUR

 SYMMETRIES FOR INITIAL GUESS ORBITALS FOLLOW.   BOTH SET(S).
     5 ORBITALS ARE OCCUPIED (    1 CORE ORBITALS).
     1=A        2=A        3=A        4=A        5=A        6=A        7=A   
     8=A        9=A       10=A       11=A       12=A       13=A       14=A   
    15=A       16=A       17=A       18=A       19=A       20=A       21=A   
    22=A       23=A       24=A       25=A       26=A       27=A       28=A   
    29=A   
 ...... END OF INITIAL ORBITAL SELECTION ......
 CPU     0: STEP CPU TIME=     0.01 TOTAL CPU TIME=          0.0 (      0.0 MIN)
 TOTAL WALL CLOCK TIME=          0.1 SECONDS, CPU UTILIZATION IS    80.00%

                    ----------------------
                    AO INTEGRAL TECHNOLOGY
                    ----------------------
     S,P,L SHELL ROTATED AXIS INTEGRALS, REPROGRAMMED BY
        KAZUYA ISHIMURA (IMS) AND JOSE SIERRA (SYNSTAR).
     S,P,D,L SHELL ROTATED AXIS INTEGRALS PROGRAMMED BY
        KAZUYA ISHIMURA (INSTITUTE FOR MOLECULAR SCIENCE).
     S,P,D,F,G SHELL TO TOTAL QUARTET ANGULAR MOMENTUM SUM 5,
        ERIC PROGRAM BY GRAHAM FLETCHER (ELORET AND NASA ADVANCED
        SUPERCOMPUTING DIVISION, AMES RESEARCH CENTER).
     S,P,D,F,G,L SHELL GENERAL RYS QUADRATURE PROGRAMMED BY
        MICHEL DUPUIS (PACIFIC NORTHWEST NATIONAL LABORATORY).

          --------------------
          2 ELECTRON INTEGRALS
          --------------------

 DIRECT SCF METHOD SKIPS INTEGRAL STORAGE ON DISK.
 DIRECT TRANSFORMATION SKIPS AO INTEGRAL STORAGE ON DISK.
  ...... END OF TWO-ELECTRON INTEGRALS .....
 STEP CPU TIME =     0.02 TOTAL CPU TIME =          0.1 (      0.0 MIN)
 TOTAL WALL CLOCK TIME=          0.1 SECONDS, CPU UTILIZATION IS    75.00%
 DDI: Creating Array [0] - 900 x 36 = 32400 words.
 DDI: Creating Array [1] - 21 x 288 = 6048 words.
 DDI: Creating Array [2] - 36 x 36 = 1296 words.
 DDI: Creating Array [3] - 465 x 36 = 16740 words.

          -----------------
          MCSCF CALCULATION
          -----------------

 ----- NUCLEAR ENERGY ----- =        11.2117051496

     -------------------------------------------------
     GMC-PT/GMC-QDPT or general MCSCF input parameters
     -------------------------------------------------
 # of frozen core orbs. =         0 ->         0
 # of doubly occ. orbs. =         1
 # of active      orbs. =         7
 # of virtual     orbs. =        21
 # of active electrons  =         7
 # of states in CI      =         3
 Highest state in CI    =         3
 kstate =  1 1 1
 avecoe =  0.333 0.333 0.333
 State symmetry           = A           
 Assigned symmetry number = 1

 <<<Act. MO sym.: 1111111

 <<<Division of 1-ext.:  0
 <<<Division of 2-ext.:  0

 *** Reference space

 Reference type: ORMAS (= Occupation restricted multiple active space)
 # of orbitals          =  7
 # of minimum electrons =  7
 # of maximum electrons =  7
 State symmetry    =    1 (input)
 2*Sz              =    1 (input)
 Spin multiplicity =    2 (input)
 Dimension of reference space =      1225  (from      3432 walks)

 Dimension of reference space =      1225  (from      1225 walks)

 <<<Ionized spaces for Ref-CI:
      0:         1225 /   -1-0:         1960 /  0-1-0:         2891

 EVALUATING EXCHANGE INTEGRALS FOR DIRECT INTEGRAL TRANSFORMATION
 SCHWARZ INEQUALITY OVERHEAD:       465 INTEGRALS, T=        0.00

     --------------------------------------------
     PARTIAL TWO ELECTRON INTEGRAL TRANSFORMATION
     --------------------------------------------

 NUMBER OF CORE MOLECULAR ORBITALS     =    1
 NUMBER OF OCCUPIED MOLECULAR ORBITALS =    8
 TOTAL NUMBER OF MOLECULAR ORBITALS    =   29
 TOTAL NUMBER OF ATOMIC ORBITALS       =   30
 THRESHOLD FOR KEEPING TRANSFORMED 2E- INTEGRALS = 1.000E-09

 -------------------------------     ------------------------------
 DISTRIBUTED DATA TRANSFORMATION     PROGRAM WRITTEN BY G. FLETCHER
 -------------------------------     ------------------------------

 THE DISTRIBUTED MEMORY REQUIRED FOR THIS STEP IS MEMDDI=         1 MWORDS
 CREATING DISTRIBUTED STORAGE FOR [VIR OCC|VIR OCC] INTEGRALS
 CREATING DISTRIBUTED STORAGE FOR [VIR OCC|OCC OCC] INTEGRALS
 CREATING DISTRIBUTED STORAGE FOR [OCC OCC|OCC OCC] INTEGRALS
 CREATING DISTRIBUTED STORAGE FOR [VIR VIR|OCC OCC] INTEGRALS
 FOR    1 PROCESSORS, THE REPLICATED MEMORY NEEDED IS       73700 WORDS.
 SCHWARZ INEQUALITY OVERHEAD:       465 INTEGRALS, T=        0.01

      DIRECT 4-INDEX TRANSFORMATION 
      SCHWARZ INEQUALITY TEST SKIPPED          0 INTEGRAL BLOCKS
 ----- FROZEN CORE ENERGY =       -47.6469087288
 ... END OF INTEGRAL TRANSFORMATION ...
 CPU     0: STEP CPU TIME=     0.23 TOTAL CPU TIME=          0.3 (      0.0 MIN)
 TOTAL WALL CLOCK TIME=          0.3 SECONDS, CPU UTILIZATION IS    96.67%

     --------------------------------     -----------------------------
     MCHF NEWTON-RAPHSON OPTIMIZATION     CODE WRITTEN BY MICHEL DUPUIS
     --------------------------------     -----------------------------
     PARALLEL VERSION WRITTEN BY G. FLETCHER (ELORET)
     NASA ADVANCED SUPERCOMPUTING DIVISION, AMES RESEARCH CENTER

 NUMBER OF INDEPENDENT ORBITAL ROTATION PARAMETERS =   175
 ..... DONE SOLVING NEWTON-RAPHSON EQUATIONS .....
 CPU     0: STEP CPU TIME=     0.70 TOTAL CPU TIME=          1.0 (      0.0 MIN)
 TOTAL WALL CLOCK TIME=          1.0 SECONDS, CPU UTILIZATION IS    99.00%
 ..... DONE WITH NTN-RPH ORBITAL ROTATIONS ..... 
 CPU     0: STEP CPU TIME=     0.00 TOTAL CPU TIME=          1.0 (      0.0 MIN)
 TOTAL WALL CLOCK TIME=          1.0 SECONDS, CPU UTILIZATION IS    99.00%
 MAXIMUM MEMORY USED BY NTN-RPH CODE WAS     57645 WORDS.

 ITER     TOTAL ENERGY      DEL(E)  LAGRANGIAN ASYMMETRY   SQCDF  MICIT   DAMP
   1      -55.607609460 -0.607609460  0.113411   12    5 1.141E-01  1   0.0000
   2      -55.659906878 -0.052297418  0.020432   12    5 4.565E-01  1   0.0000
   3      -55.695488788 -0.035581910  0.013512   11    6 2.326E-01  1   0.0207
   4      -55.711445527 -0.015956739  0.004644   11    6 4.737E-02  1   0.0055
   5      -55.713643784 -0.002198257  0.000760   12    5 1.405E-03  1   0.0000
   6      -55.713711319 -0.000067536  0.000331   22    5 1.261E-04  1   0.0000
   7      -55.713718774 -0.000007455  0.000155   22    5 2.355E-05  1   0.0000
   8      -55.713720253 -0.000001479  0.000076   22    5 5.383E-06  1   0.0000
   9      -55.713720600 -0.000000347  0.000039   22    5 1.419E-06  1   0.0000
  10      -55.713720692 -0.000000092  0.000020   22    5 4.194E-07  1   0.0000
  11      -55.713720719 -0.000000027  0.000011   22    5 1.351E-07  1   0.0000
  12      -55.713720728 -0.000000009  0.000006   22    5 4.626E-08  1   0.0000
  13      -55.713720731 -0.000000003  0.000003   22    5 1.650E-08  1   0.0000
  14      -55.713720732 -0.000000001  0.000002   23    5 6.080E-09  1   0.0000
  15      -55.713720732 -0.000000000  0.000001   23    5 2.271E-09  1   0.0000
  16      -55.713720732 -0.000000000  0.000001   23    5 8.694E-10  1   0.0000

          --------------------
          LAGRANGIAN CONVERGED
          --------------------

 FINAL MCSCF ENERGY IS      -55.7137207322 AFTER  16 ITERATIONS

 -MCCI- BASED ON OPTIMIZED ORBITALS
 ----------------------------------

 PLEASE NOTE: IF THE ACTIVE ORBITALS ARE CANONICALIZED BELOW,
 THE FOLLOWING CI EXPANSION COEFFICIENTS AND THE DENSITY DO NOT
 CORRESPOND TO THE PRINTED ORBITALS.  THE PRINTED EXPANSIONS MATCH
 THE ORBITALS USED DURING THE LAST ITERATION.  IF YOU WISH TO SEE
 CI EXPANSIONS BASED ON THE CANONICAL (OR NATURAL) ORBITALS, YOU
 MUST RUN A CI CALCULATION WITH THAT ORBITAL CHOICE READ IN $VEC.

 Averaged energy =     -55.713720732

 State #    1  Energy =     -55.849402347  S =  0.500

      Det      Coef    Occupancy (Ignoring core)
      ---      ----    --------- --------- -----
        1   -0.923854  11110001110000
        5    0.068947  01111001110000
        8    0.134932  10110101110000
       17   -0.130198  11010011110000
       71    0.212459  11110001011000
      211   -0.051871  11110000110100
      386   -0.095120  11110001010010
      393   -0.070463  10110101010010
      701    0.107775  11110001100001
      717   -0.050143  11010011100001

 State #    2  Energy =     -55.742581150  S =  0.500

      Det      Coef    Occupancy (Ignoring core)
      ---      ----    --------- --------- -----
        1   -0.178352  11110001110000
       36   -0.471318  11110001101000
       43    0.052395  10110101101000
       71   -0.817534  11110001011000
       74    0.052644  10111001011000
       75    0.059170  01111001011000
       78    0.083772  10110101011000
       87   -0.090497  11010011011000
      386   -0.051396  11110001010010
      456   -0.053684  11110001001010
      806   -0.082493  11110001001001

 State #    3  Energy =     -55.549178700  S =  0.500

      Det      Coef    Occupancy (Ignoring core)
      ---      ----    --------- --------- -----
        1    0.106792  11110001110000
       36   -0.840228  11110001101000
       43    0.071789  10110101101000
       52   -0.053639  11010011101000
       71    0.456911  11110001011000
      281   -0.069560  11110000101100
      456   -0.089737  11110001001010
      463   -0.066956  10110101001010

 DENSITY MATRIX OVER ACTIVE MO-S

             1           2           3           4           5

    1    1.9744726
    2    0.0165480   1.6270006
    3    0.0014186   0.0039069   1.6329924
    4    0.0010042   0.0033691  -0.0010577   1.6530002
    5    0.1061596  -0.0464467  -0.0079166   0.0064575   0.0331353
    6    0.0008540  -0.1550410  -0.0053374   0.0443051   0.0061258
    7   -0.0114142  -0.0060188  -0.1499877   0.0076552  -0.0026447

             6           7

    6    0.0440243
    7   -0.0031929   0.0353747

 FORMING THE "STANDARD FOCK OPERATOR" IN DIRECT AO INTEGRAL MODE...
 ONLY THE    1 CORE AND   21 VIRTUAL ORBITALS WILL BE CANONICALIZED

          ----------------------
          MCSCF NATURAL ORBITALS
          ----------------------

                      1          2          3          4          5
                  -15.9846     1.9809     1.6553     1.6493     1.6395
                     A          A          A          A          A   
    1  N  1  S    1.001133   0.008602  -0.009121  -0.003801  -0.002029
    2  N  1  S   -0.001871   0.434700  -0.139795  -0.130590  -0.035806
    3  N  1  S   -0.006263   0.324251  -0.233832  -0.177414  -0.055221
    4  N  1  X   -0.000002   0.034204  -0.143602   0.193305   0.477950
    5  N  1  Y   -0.000189   0.011188  -0.205144   0.348369  -0.260226
    6  N  1  Z    0.001159   0.087455   0.537884   0.232338  -0.006802
    7  N  1  X   -0.000016   0.002538  -0.087370   0.062544   0.273050
    8  N  1  Y   -0.000046   0.004298  -0.090167   0.104688  -0.141635
    9  N  1  Z   -0.000549   0.015781   0.362750   0.132761  -0.021249
   10  N  1 XX   -0.000151  -0.002506  -0.013217  -0.000166   0.011722
   11  N  1 YY    0.000363   0.002534  -0.007794  -0.010110  -0.011449
   12  N  1 ZZ   -0.000212  -0.000028   0.021011   0.010276  -0.000273
   13  N  1 XY    0.000309   0.003068   0.000929  -0.000497   0.002416
   14  N  1 XZ    0.000100   0.002001  -0.002658   0.011153   0.021508
   15  N  1 YZ    0.000015   0.002387  -0.007694   0.016005  -0.011240
   16  H  2  S   -0.001492   0.172307   0.007078   0.252915  -0.274552
   17  H  2  S    0.000334  -0.000180   0.018330   0.035442  -0.096388
   18  H  2  X   -0.000074   0.002514  -0.002504   0.015373   0.013134
   19  H  2  Y    0.000775  -0.030293  -0.004426  -0.027101   0.026662
   20  H  2  Z    0.000405  -0.008048   0.023554  -0.001685   0.010994
   21  H  3  S   -0.001969   0.170417   0.243950  -0.292720   0.023270
   22  H  3  S    0.000664  -0.001254   0.041356  -0.028393  -0.005148
   23  H  3  X   -0.000378   0.013441   0.007179  -0.007720   0.020373
   24  H  3  Y   -0.000991   0.031113   0.026142  -0.030102  -0.001696
   25  H  3  Z    0.000342  -0.002874   0.013350   0.019026  -0.000777
   26  H  4  S   -0.001690   0.202982   0.032912   0.258925   0.287365
   27  H  4  S    0.000278   0.007161   0.019019   0.038816   0.099391
   28  H  4  X    0.000802  -0.032150  -0.012204  -0.026475  -0.016080
   29  H  4  Y    0.000248  -0.010186  -0.005721   0.011051  -0.017857
   30  H  4  Z    0.000496  -0.014860   0.022256  -0.005031  -0.018303

                      6          7          8
                    0.0312     0.0253     0.0185
                     A          A          A   
    1  N  1  S   -0.099968  -0.139796  -0.139945
    2  N  1  S   -0.342854  -0.507992  -0.413685
    3  N  1  S   -0.037262  -0.209451   0.023735
    4  N  1  X    0.601365  -0.486467   0.216859
    5  N  1  Y   -0.338649  -0.185013   0.840735
    6  N  1  Z   -0.211156  -0.569936  -0.178346
    7  N  1  X   -0.058891  -0.056042   0.030035
    8  N  1  Y    0.009693  -0.082526   0.086772
    9  N  1  Z    0.034634   0.029391   0.074516
   10  N  1 XX   -0.052987  -0.007632  -0.005527
   11  N  1 YY    0.055537   0.005646   0.020569
   12  N  1 ZZ   -0.002550   0.001987  -0.015042
   13  N  1 XY    0.010518   0.039966  -0.016105
   14  N  1 XZ   -0.004136   0.036471  -0.000379
   15  N  1 YZ    0.018031   0.029178  -0.042525
   16  H  2  S    0.708529   0.255920  -0.283935
   17  H  2  S    0.202243  -0.000703  -0.088063
   18  H  2  X   -0.009894   0.035361  -0.018560
   19  H  2  Y   -0.067631  -0.028878   0.015450
   20  H  2  Z   -0.002492   0.027994  -0.006665
   21  H  3  S    0.263643   0.175922   0.830280
   22  H  3  S    0.037462  -0.002702   0.149215
   23  H  3  X   -0.000752   0.013815   0.030704
   24  H  3  Y    0.028083   0.027479   0.079173
   25  H  3  Z   -0.002034   0.003201   0.023357
   26  H  4  S   -0.387235   0.742762  -0.022671
   27  H  4  S   -0.165348   0.150090   0.004533
   28  H  4  X    0.008080  -0.068634  -0.005463
   29  H  4  Y    0.026240   0.008692  -0.036403
   30  H  4  Z    0.024526   0.003438  -0.004893

          ------------------------
          MCSCF OPTIMIZED ORBITALS
          ------------------------

                      1          2          3          4          5
                  -15.9846     0.0000     0.0000     0.0000     0.0000
                     A          A          A          A          A   
    1  N  1  S    1.001133  -0.002077   0.010372   0.009054  -0.012463
    2  N  1  S   -0.001871   0.399711  -0.010770  -0.006247  -0.187250
    3  N  1  S   -0.006263   0.317669  -0.073037  -0.022593  -0.282872
    4  N  1  X   -0.000002   0.010737   0.451750  -0.067421  -0.031356
    5  N  1  Y   -0.000189  -0.000981  -0.006476   0.392746  -0.031022
    6  N  1  Z    0.001159   0.051155   0.006622  -0.003157   0.585212
    7  N  1  X   -0.000016  -0.011617   0.278720  -0.080090  -0.054992
    8  N  1  Y   -0.000046   0.002337  -0.050056   0.181580  -0.034806
    9  N  1  Z   -0.000549   0.018647  -0.036878  -0.019571   0.386598
   10  N  1 XX   -0.000151  -0.004825   0.017033  -0.003722  -0.013238
   11  N  1 YY    0.000363   0.005106  -0.018277   0.002013  -0.009830
   12  N  1 ZZ   -0.000212  -0.000281   0.001245   0.001709   0.023068
   13  N  1 XY    0.000309   0.004971   0.002553  -0.000175   0.000153
   14  N  1 XZ    0.000100   0.002615   0.025383  -0.002774   0.001623
   15  N  1 YZ    0.000015   0.003609   0.001944   0.025270  -0.000837
   16  H  2  S   -0.001492   0.201651  -0.132472   0.393166   0.121700
   17  H  2  S    0.000334   0.006464  -0.078610   0.089255   0.034827
   18  H  2  X   -0.000074   0.002849   0.021941   0.006302   0.003193
   19  H  2  Y    0.000775  -0.033355   0.012232  -0.037810  -0.016447
   20  H  2  Z    0.000405  -0.006980   0.003813  -0.015105   0.020119
   21  H  3  S   -0.001969   0.203475  -0.235034  -0.374680   0.116029
   22  H  3  S    0.000664   0.002508  -0.038403  -0.043810   0.028820
   23  H  3  X   -0.000378   0.014027   0.010755  -0.022130   0.003528
   24  H  3  Y   -0.000991   0.035000  -0.026765  -0.035954   0.012789
   25  H  3  Z    0.000342  -0.002909   0.005051   0.007976   0.020347
   26  H  4  S   -0.001690   0.210663   0.422526   0.011416   0.120518
   27  H  4  S    0.000278   0.005713   0.115377  -0.039538   0.027914
   28  H  4  X    0.000802  -0.033988  -0.027472  -0.006158  -0.021324
   29  H  4  Y    0.000248  -0.009245  -0.008505   0.024259  -0.000632
   30  H  4  Z    0.000496  -0.013204  -0.025033   0.000006   0.018550

                      6          7          8          9         10
                    0.0000     0.0000     0.0000     0.1263     0.1980
                     A          A          A          A          A   
    1  N  1  S    0.202928  -0.054972  -0.068893  -0.107785   0.023132
    2  N  1  S    0.724571  -0.149486  -0.176769  -0.156980   0.023741
    3  N  1  S    0.206537   0.090841   0.049785   1.174612  -0.350433
    4  N  1  X    0.071150   0.844344  -0.072188  -0.035616  -0.025411
    5  N  1  Y    0.066542   0.158415   0.949873  -0.020663  -0.143460
    6  N  1  Z    0.634843   0.054571  -0.032684  -0.149672   0.022022
    7  N  1  X    0.056618   0.024058   0.050757   0.159709   0.272761
    8  N  1  Y    0.041721   0.080455   0.093247   0.151265   0.733374
    9  N  1  Z   -0.057960   0.025168   0.044586   0.352607  -0.006410
   10  N  1 XX    0.030893  -0.036733   0.020218  -0.020863   0.030719
   11  N  1 YY   -0.034666   0.045960  -0.008061   0.060804  -0.062312
   12  N  1 ZZ    0.003773  -0.009227  -0.012156  -0.039941   0.031593
   13  N  1 XY   -0.033892  -0.018844  -0.021181   0.058922  -0.035800
   14  N  1 XZ   -0.029661  -0.020101  -0.000363   0.047525   0.037840
   15  N  1 YZ   -0.020704  -0.017404  -0.045218   0.038231   0.089150
   16  H  2  S   -0.438984   0.285741  -0.561476   0.392600   0.183759
   17  H  2  S   -0.062042   0.113744  -0.165388  -0.900394  -0.662461
   18  H  2  X   -0.020881  -0.031198  -0.012860   0.056295   0.009051
   19  H  2  Y    0.048236  -0.029253   0.043411   0.062372   0.028003
   20  H  2  Z   -0.021143  -0.019391  -0.007639   0.041928   0.068663
   21  H  3  S   -0.483875   0.398041   0.567044   0.299459  -0.541069
   22  H  3  S   -0.055402   0.082245   0.110252  -0.576410   1.937655
   23  H  3  X   -0.019613   0.004691   0.024894  -0.039866   0.036569
   24  H  3  Y   -0.055568   0.034091   0.052201  -0.066943   0.121026
   25  H  3  Z   -0.008749   0.005591   0.022127  -0.023313  -0.073388
   26  H  4  S   -0.453254  -0.659141   0.128831   0.331976   0.199255
   27  H  4  S   -0.058048  -0.193820   0.071155  -0.870872  -0.688894
   28  H  4  X    0.055238   0.038184  -0.006005   0.049506   0.013774
   29  H  4  Y   -0.009074   0.000995  -0.042857   0.094146   0.002961
   30  H  4  Z   -0.012370   0.012230  -0.016311   0.054294   0.051703

                     11         12         13         14         15
                    0.2428     0.5292     0.5764     0.6536     0.8448
                     A          A          A          A          A   
    1  N  1  S    0.015341  -0.102082  -0.013773  -0.012403  -0.513694
    2  N  1  S    0.033607  -0.119602   0.052147   0.013684  -1.156762
    3  N  1  S   -0.096549   0.810079   0.432965   0.125530   1.996570
    4  N  1  X    0.003058   0.426702  -0.519964  -0.017239  -0.039129
    5  N  1  Y   -0.043812   0.028135   0.205121  -0.448759  -0.072405
    6  N  1  Z    0.019178  -0.597372  -0.342860  -0.200850   0.293696
    7  N  1  X   -0.343171  -0.793093   1.312256   0.451136   0.044980
    8  N  1  Y    0.323022  -0.252613  -0.351745   1.863113   0.088047
    9  N  1  Z   -0.074954   0.850044   0.697841   0.510947  -0.140173
   10  N  1 XX   -0.067081  -0.012659  -0.006686   0.030235   0.011671
   11  N  1 YY    0.072021  -0.009810  -0.010762  -0.015763   0.013428
   12  N  1 ZZ   -0.004939   0.022469   0.017448  -0.014472  -0.025099
   13  N  1 XY   -0.037124  -0.025394  -0.048817   0.022318  -0.104671
   14  N  1 XZ   -0.056295  -0.007967   0.000127  -0.014979   0.027079
   15  N  1 YZ    0.028435   0.000817   0.000201  -0.067278  -0.037656
   16  H  2  S    0.581371  -0.260509   0.055683  -0.654243   0.031990
   17  H  2  S   -1.966814  -0.317825   0.626956  -0.521887  -0.378338
   18  H  2  X   -0.050384  -0.090591  -0.109949   0.016433  -0.321909
   19  H  2  Y    0.066058   0.015971  -0.005682   0.237127   0.142098
   20  H  2  Z    0.010270   0.106926  -0.002836  -0.103351  -0.006755
   21  H  3  S    0.059718  -0.559573  -0.240191   0.541050  -0.153492
   22  H  3  S   -0.076749  -0.397114   0.177828   0.705884  -0.446843
   23  H  3  X    0.042569  -0.016881   0.093783   0.011984   0.086920
   24  H  3  Y    0.002528  -0.078259  -0.024233   0.195439  -0.106279
   25  H  3  Z   -0.003621   0.049406   0.039479   0.139328   0.156932
   26  H  4  S   -0.608959  -0.066429  -0.623520  -0.325058   0.047029
   27  H  4  S    2.067214   0.378242  -0.894972  -0.138046  -0.287204
   28  H  4  X   -0.087302  -0.021759   0.113168   0.184302   0.196333
   29  H  4  Y    0.014331  -0.102735  -0.009015  -0.001420  -0.277995
   30  H  4  Z   -0.031941   0.043552   0.109532  -0.066078   0.095135

                     16         17         18         19         20
                    1.0215     1.0895     1.2399     1.3268     1.4606
                     A          A          A          A          A   
    1  N  1  S   -0.305756  -0.234899   0.087381  -0.247981  -0.412016
    2  N  1  S   -0.635550  -0.491502   0.181365  -0.527728  -0.868434
    3  N  1  S    1.271883   1.069706  -0.352046   0.925675   1.440878
    4  N  1  X   -0.040587  -0.059827  -0.014231   0.063190  -0.019793
    5  N  1  Y   -0.070704   0.108840  -0.227348  -0.035140  -0.087019
    6  N  1  Z    0.088053   0.027095   0.027794  -0.010031  -0.059287
    7  N  1  X    0.308589   0.262492   0.419526  -0.398472   0.472765
    8  N  1  Y    0.385280  -0.556392   1.072959  -0.232336   0.288286
    9  N  1  Z   -0.125143   0.253483  -0.023762   0.348360   0.723783
   10  N  1 XX   -0.172946   0.165952   0.014383   0.073896  -0.025460
   11  N  1 YY   -0.086518  -0.112697  -0.038707   0.059691   0.083833
   12  N  1 ZZ    0.259464  -0.053255   0.024324  -0.133586  -0.058374
   13  N  1 XY    0.087752   0.130522  -0.015128  -0.083289   0.085775
   14  N  1 XZ   -0.030743  -0.241304  -0.138760  -0.051954  -0.076765
   15  N  1 YZ   -0.022600   0.095222   0.130924   0.046105   0.051704
   16  H  2  S   -0.408100   0.110815  -0.408467  -0.270582  -0.525509
   17  H  2  S   -0.130123   0.042315  -0.088344   0.010970   0.044987
   18  H  2  X    0.265958   0.039896  -0.492085   0.151190   0.158913
   19  H  2  Y   -0.077114   0.056555  -0.378592  -0.167981  -0.062639
   20  H  2  Z    0.378863   0.202664   0.524190  -0.092885  -0.476204
   21  H  3  S    0.006410  -0.368975   0.614015  -0.372965  -0.226549
   22  H  3  S   -0.101090  -0.283910   0.317932  -0.196543  -0.053764
   23  H  3  X    0.010747  -0.545798  -0.018248   0.618203  -0.266597
   24  H  3  Y    0.031707   0.136911  -0.169551  -0.184938   0.025383
   25  H  3  Z    0.273101   0.108381  -0.390009  -0.021415  -0.725632
   26  H  4  S   -0.399335  -0.275689  -0.074716  -0.059048  -0.575840
   27  H  4  S   -0.167638  -0.188419  -0.069333  -0.047524  -0.260673
   28  H  4  X   -0.251347   0.203446   0.118176   0.204378  -0.089031
   29  H  4  Y    0.225984   0.173472   0.051470   0.545605  -0.006782
   30  H  4  Z    0.383202  -0.443183   0.034224  -0.400376   0.249106

                     21         22         23         24         25
                    1.6084     1.8195     1.8823     1.9999     2.0607
                     A          A          A          A          A   
    1  N  1  S   -0.133591   0.076498  -0.086363  -0.017874   0.060157
    2  N  1  S   -0.267140   0.276123  -0.199331  -0.013515   0.128784
    3  N  1  S    0.544465   0.975928  -0.357955   0.351128  -0.011141
    4  N  1  X   -0.234126   0.243386   0.183806  -0.088147   0.090634
    5  N  1  Y   -0.030487   0.270187   0.526554  -0.020636  -0.153710
    6  N  1  Z   -0.027876   0.267910  -0.023431   0.014796   0.045918
    7  N  1  X   -0.092853  -0.001671   0.037983  -0.153097  -0.200423
    8  N  1  Y    0.697594   0.205251   0.217548  -0.127644   0.039735
    9  N  1  Z    0.263811   0.354454  -0.078051   0.328788   0.070372
   10  N  1 XX    0.159568   0.073065  -0.204982  -0.512613  -0.448612
   11  N  1 YY   -0.040471  -0.104364   0.127673  -0.233321   0.108656
   12  N  1 ZZ   -0.119097   0.031298   0.077309   0.745934   0.339956
   13  N  1 XY    0.007778  -0.096571   0.269239   0.472726  -0.030854
   14  N  1 XZ    0.198782  -0.257865   0.076215   0.085972  -0.001101
   15  N  1 YZ   -0.120667  -0.057059  -0.203885   0.166478   0.065971
   16  H  2  S   -0.230839  -0.160153   0.047318  -0.131912   0.217000
   17  H  2  S   -0.449750  -0.380738  -0.079737  -0.194518   0.310981
   18  H  2  X    0.363308   0.218263  -0.117617  -0.396858   0.776898
   19  H  2  Y    0.356041   0.782515   0.066621   0.400276  -0.492009
   20  H  2  Z    0.489689   0.196484   0.367676  -0.298378   0.061470
   21  H  3  S    0.150959  -0.109028   0.094862  -0.167330  -0.057920
   22  H  3  S   -0.016333  -0.039374   0.482927  -0.200554  -0.040466
   23  H  3  X    0.192082   0.007393   0.396270   0.110277  -0.087843
   24  H  3  Y   -0.316765  -0.331021   0.910460  -0.368129  -0.190020
   25  H  3  Z   -0.356184  -0.351864  -0.376051  -0.119305   0.011681
   26  H  4  S   -0.376026  -0.127637   0.072464   0.049754  -0.166551
   27  H  4  S    0.313226  -0.276269  -0.145587   0.215094  -0.294913
   28  H  4  X   -0.298311   0.517839   0.235629  -0.061577   0.845683
   29  H  4  Y   -0.416410   0.336353  -0.088406   0.157730  -0.642764
   30  H  4  Z   -0.403938   0.472438  -0.021553  -0.406423  -0.163211

                     26         27         28         29
                    2.2469     2.6103     2.6505     2.9730
                     A          A          A          A   
    1  N  1  S   -0.079077  -0.081410  -0.112984  -0.025620
    2  N  1  S   -0.119976  -0.180272  -0.078611   0.046174
    3  N  1  S    0.748286  -0.311127   1.936220   1.213096
    4  N  1  X    0.036819   0.031842   0.254398  -0.332845
    5  N  1  Y   -0.014268   0.463510   0.052055  -0.208601
    6  N  1  Z    0.063470  -0.068658   0.277810   0.110950
    7  N  1  X    0.448201   0.154714   0.696868  -0.509470
    8  N  1  Y   -0.218865   1.242275   0.473619  -0.331770
    9  N  1  Z    0.380498   0.016762   0.520973   0.109262
   10  N  1 XX   -0.323867  -0.245053   0.282005  -0.896361
   11  N  1 YY    0.163302   0.072247   0.220347   1.453441
   12  N  1 ZZ    0.160565   0.172806  -0.502352  -0.557080
   13  N  1 XY   -0.514800  -0.686856   0.683244   0.192138
   14  N  1 XZ    0.700105   0.059493   0.817590  -0.425242
   15  N  1 YZ   -0.398815   1.037759   0.583679  -0.038475
   16  H  2  S   -0.126083  -0.802217  -0.518448  -0.753542
   17  H  2  S    0.050063  -0.389795  -0.077401  -0.217716
   18  H  2  X   -0.158406   0.095865  -0.036840  -0.133141
   19  H  2  Y    0.020414   0.728880   0.233948   0.737532
   20  H  2  Z    0.095780   0.174905   0.203441   0.428954
   21  H  3  S   -0.214820   1.058604  -0.296242  -1.189868
   22  H  3  S   -0.096746   0.435186  -0.023761  -0.344250
   23  H  3  X   -0.651795   0.135445  -0.063542  -0.409491
   24  H  3  Y    0.018304   0.868660  -0.250446  -0.806419
   25  H  3  Z   -0.203299  -0.038647   0.327130   0.394509
   26  H  4  S   -0.334595   0.090141  -1.262254   0.609258
   27  H  4  S   -0.227020   0.097795  -0.487093   0.193017
   28  H  4  X    0.214711  -0.194747   0.871590  -0.522459
   29  H  4  Y    0.607852  -0.083672   0.220193  -0.127718
   30  H  4  Z   -0.190895  -0.180513   0.611732  -0.285391
 .....DONE WITH MCSCF ITERATIONS.....
 CPU     0: STEP CPU TIME=    10.25 TOTAL CPU TIME=         11.2 (      0.2 MIN)
 TOTAL WALL CLOCK TIME=         11.3 SECONDS, CPU UTILIZATION IS    99.82%

     ----------------------------------------------------------------
     PROPERTY VALUES FOR THE MCSCF SELF-CONSISTENT FIELD WAVEFUNCTION
     ----------------------------------------------------------------

          -----------------
          ENERGY COMPONENTS
          -----------------

         WAVEFUNCTION NORMALIZATION =       1.0000000000

                ONE ELECTRON ENERGY =     -93.9235789178
                TWO ELECTRON ENERGY =      26.9981530360
           NUCLEAR REPULSION ENERGY =      11.2117051496
                                      ------------------
                       TOTAL ENERGY =     -55.7137207322

 ELECTRON-ELECTRON POTENTIAL ENERGY =      26.9981530360
  NUCLEUS-ELECTRON POTENTIAL ENERGY =    -149.6530572870
   NUCLEUS-NUCLEUS POTENTIAL ENERGY =      11.2117051496
                                      ------------------
             TOTAL POTENTIAL ENERGY =    -111.4431991014
               TOTAL KINETIC ENERGY =      55.7294783692
                 VIRIAL RATIO (V/T) =       1.9997172477

          ---------------------------------------
          MULLIKEN AND LOWDIN POPULATION ANALYSES
          ---------------------------------------

     ATOMIC MULLIKEN POPULATION IN EACH MOLECULAR ORBITAL

                      1          2          3          4          5

                  2.000000   1.980918   1.655309   1.649347   1.639492

    1             2.000715   1.352761   1.463108   0.921685   1.166082
    2            -0.000163   0.189728   0.007725   0.214584   0.233302
    3            -0.000307   0.178913   0.172552   0.298708   0.009848
    4            -0.000244   0.259516   0.011925   0.214371   0.230260

                      6          7          8

                  0.031196   0.025263   0.018475

    1             0.013879   0.013298   0.009806
    2             0.012586   0.001484   0.000858
    3             0.001707   0.000486   0.007774
    4             0.003024   0.009994   0.000037
 WARNING! MCSCF POPULATIONS SHOWN ABOVE ARE FOR THE NATURAL ORBITALS.
 IGNORE THE ABOVE DATA FOR MCSCF FUNCTIONS WHICH ARE NOT OF -FORS- TYPE.
 THE FOLLOWING POPULATIONS ARE CORRECT FOR ANY MCSCF WAVEFUNCTION.

               ----- POPULATIONS IN EACH AO -----
                             MULLIKEN      LOWDIN
              1  N  1  S      2.00235     1.90188
              2  N  1  S      0.81899     0.57785
              3  N  1  S      0.69054     0.40840
              4  N  1  X      0.73342     0.67303
              5  N  1  Y      0.64602     0.56527
              6  N  1  Z      0.85760     0.80647
              7  N  1  X      0.38757     0.45603
              8  N  1  Y      0.26529     0.39029
              9  N  1  Z      0.52342     0.56055
             10  N  1 XX      0.00048     0.15523
             11  N  1 YY      0.00432     0.18874
             12  N  1 ZZ      0.00076     0.14304
             13  N  1 XY      0.00527     0.00411
             14  N  1 XZ      0.00531     0.00939
             15  N  1 YZ      0.00000     0.01043
             16  H  2  S      0.55358     0.42436
             17  H  2  S      0.05320     0.15057
             18  H  2  X      0.00979     0.03242
             19  H  2  Y      0.03068     0.05008
             20  H  2  Z      0.01285     0.02967
             21  H  3  S      0.58606     0.45611
             22  H  3  S      0.02722     0.14572
             23  H  3  X      0.01179     0.02694
             24  H  3  Y      0.03356     0.05995
             25  H  3  Z      0.01105     0.03119
             26  H  4  S      0.61526     0.47091
             27  H  4  S      0.05563     0.14871
             28  H  4  X      0.02859     0.05311
             29  H  4  Y      0.01177     0.03104
             30  H  4  Z      0.01763     0.03851

          ----- MULLIKEN ATOMIC OVERLAP POPULATIONS -----
          (OFF-DIAGONAL ELEMENTS NEED TO BE MULTIPLIED BY 2)

             1           2           3           4

    1    6.1044172
    2    0.2569852   0.4191080
    3    0.3103311  -0.0056236   0.3698226
    4    0.2695993  -0.0103660  -0.0048506   0.4745012

          TOTAL MULLIKEN AND LOWDIN ATOMIC POPULATIONS
       ATOM         MULL.POP.    CHARGE          LOW.POP.     CHARGE
    1 N             6.941333    0.058667         6.850725    0.149275
    2 H             0.660104    0.339896         0.687086    0.312914
    3 H             0.669679    0.330321         0.719910    0.280090
    4 H             0.728884    0.271116         0.742278    0.257722

          MULLIKEN SPHERICAL HARMONIC POPULATIONS
       ATOM           S       P       D      F      G      H      I    TOTAL
    1 N             3.51    3.41    0.02   0.00   0.00   0.00   0.00    6.94
    2 H             0.61    0.05    0.00   0.00   0.00   0.00   0.00    0.66
    3 H             0.61    0.06    0.00   0.00   0.00   0.00   0.00    0.67
    4 H             0.67    0.06    0.00   0.00   0.00   0.00   0.00    0.73

          ---------------------
          ELECTROSTATIC MOMENTS
          ---------------------

 POINT   1           X           Y           Z (BOHR)    CHARGE
                 0.000003    0.000003   -0.177185        1.00 (A.U.)
         DX          DY          DZ         /D/  (DEBYE)
     0.593862    0.481769    2.171870    2.302562
 ...... END OF PROPERTY EVALUATION ......
 CPU     0: STEP CPU TIME=     0.01 TOTAL CPU TIME=         11.2 (      0.2 MIN)
 TOTAL WALL CLOCK TIME=         11.3 SECONDS, CPU UTILIZATION IS    99.91%

     -------------------------------------------------
     GMC-PT/GMC-QDPT or general MCSCF input parameters
     -------------------------------------------------
 # of frozen core orbs. =         0 ->         0
 # of doubly occ. orbs. =         1
 # of active      orbs. =         7
 # of virtual     orbs. =        21
 # of active electrons  =         7
 # of states in CI      =         3
 Highest state in CI    =         3
 kstate =  1 1 1
 avecoe =  0.333 0.333 0.333
 State symmetry           = A           
 Assigned symmetry number = 1

 <<<Act. MO sym.: 1111111

 <<<Division of 1-ext.:  0
 <<<Division of 2-ext.:  0

     ------------------------
     Orbital canonicalization
     ------------------------

 MOs are canonicalized for core, virtual, and invariant-active orbital spaces.
 This is a part of the GMC-QDPT calculation.
 SCHWARZ INEQUALITY OVERHEAD:       465 INTEGRALS, T=        0.00
 DIRECT TRANSFORMATION SKIPS AO INTEGRAL STORAGE ON DISK.

 Averaged energy =     -55.713720732

 State #    1  Energy =     -55.849402347  S =  0.500
 State #    2  Energy =     -55.742581150  S =  0.500
 State #    3  Energy =     -55.549178700  S =  0.500

 Orbital energies for filled orbital space
  -15.984560
 Orbital energies for active orbital space
   -1.504245  -0.805906  -1.005883  -0.736214   0.268687
    0.178925   0.412280
 Orbital energies for external orbital space
    0.126286   0.198006   0.242815   0.529213   0.576383
    0.653576   0.844776   1.021476   1.089458   1.239920
    1.326793   1.460553   1.608415   1.819525   1.882254
    1.999854   2.060729   2.246860   2.610295   2.650500
    2.972987

 Zero values mean non-canonical orbitals.
 ... done with orbital canonicalization ...
 CPU     0: STEP CPU TIME=     0.59 TOTAL CPU TIME=         11.8 (      0.2 MIN)
 TOTAL WALL CLOCK TIME=         11.9 SECONDS, CPU UTILIZATION IS    99.83%

     --------------------------------------------
     PARTIAL TWO ELECTRON INTEGRAL TRANSFORMATION
     --------------------------------------------

 NUMBER OF CORE MOLECULAR ORBITALS     =    0
 NUMBER OF OCCUPIED MOLECULAR ORBITALS =    8
 TOTAL NUMBER OF MOLECULAR ORBITALS    =   29
 TOTAL NUMBER OF ATOMIC ORBITALS       =   30
 THRESHOLD FOR KEEPING TRANSFORMED 2E- INTEGRALS = 1.000E-09
 AO INTEGRALS WILL BE CALCULATED IN DIRECT MODE...
 DIRECT TRANSFORMATION SKIPS AO INTEGRAL STORAGE ON DISK.
 SCHWARZ INEQUALITY OVERHEAD:       465 INTEGRALS, T=        0.01

 PLAN A: REQUIREMENTS FOR FULLY IN-MEMORY TRANSFORMATION:
 # OF WORDS AVAILABLE =            100000000
 # OF WORDS NEEDED    =               221798

 PARALLEL ONLY WORKS WITH THE SEGMENTED ALGORITHM.
 ADJUSTING MEMORY TO USE SEGMENTED ALGORITHM.


 PLAN B: REQUIREMENTS FOR THE SEGMENTED TRANSFORMATION:
       MINIMUM=         124148 WORDS FOR 1 MOLECULAR ORBITAL PER PASS
       MAXIMUM=         221798 WORDS FOR ALL MOLECULAR ORBITALS IN 1 PASS
              (          13950 EXTRA WORDS INCLUDES 1 EXTRA ORBITAL/PASS)
 THIS RUN USES=         221798 WORDS,
 DISTRIBUTING   1 PASSES EACH CONTAINING     8 ORBITALS OVER   1 PROCESSORS.

 CHOOSING SEGMENTED PARTIAL TRANSFORMATION...
 DIRECT TRANSFORMATION SKIPS AO INTEGRAL STORAGE ON DISK.
 PASS #   1 TOOK        0.04 SECONDS.
 TOTAL NUMBER OF TRANSFORMED 2E- INTEGRALS KEPT =        29226
 ... END OF INTEGRAL TRANSFORMATION ...
 CPU     0: STEP CPU TIME=     0.05 TOTAL CPU TIME=         11.9 (      0.2 MIN)
 TOTAL WALL CLOCK TIME=         11.9 SECONDS, CPU UTILIZATION IS    99.92%

     --------     ------------------------------------------
     GMC-QDPT     Program written by H.Nakano (Kyushu Univ.)
     --------     ------------------------------------------

 *** Reference space

 Reference type: ORMAS (= Occupation restricted multiple active space)
 # of orbitals          =  7
 # of minimum electrons =  7
 # of maximum electrons =  7
 State symmetry    =    1 (input)
 2*Sz              =    1 (input)
 Spin multiplicity =    2 (input)
 Dimension of reference space =      1225  (from      3432 walks)

 Dimension of reference space =      1225  (from      1225 walks)

 <<<Ionized spaces for Ref-CI:
      0:         1225 /   -1-0:         1960 /  0-1-0:         2891

 ***                    ***
 *** Reference space CI ***
 ***                    ***

 Converged after   27 iterations

 Reference wavefunctions:

 State #    1  Energy =     -55.849402347  S =  0.500

      Det      Coef    Occupancy (Ignoring core)
      ---      ----    --------- --------- -----
        1    0.972239  11110001110000
       71    0.089890  11110001011000
      179    0.059893  10111001010100
      393    0.055235  10110101010010
      717    0.056915  11010011100001

 State #    2  Energy =     -55.742581150  S =  0.500

      Det      Coef    Occupancy (Ignoring core)
      ---      ----    --------- --------- -----
        1    0.093252  11110001110000
       71   -0.977652  11110001011000
      822    0.057208  11010011001001

 State #    3  Energy =     -55.549178700  S =  0.500

      Det      Coef    Occupancy (Ignoring core)
      ---      ----    --------- --------- -----
       36    0.975722  11110001101000
      249    0.061645  10111001001100
      463    0.055478  10110101001010

 Davidson method: CPU/Wall time =           0.40 /           0.40 sec.

 Oscillator strength (invalid if E(1)/=E(GS)):
 -----------------------------------------
   State                        f
 -----------------------------------------
     2     F(REF-CI)=        0.0009190059
     3     F(REF-CI)=        0.0042550860
 -----------------------------------------

 Dipole moment matrix elements, x, y, z, in A.U.

 Dimension of ionized spaces for PT:
 (N-2) space:         1715 /  (N-1) space:         2842 /  N space:         2891
 (N+1) space:         2842 /  (N+2) space:         1715

 <<<Ionized spaces for internal:
         0:         1225 /      -1-0:         1960 /     0-1-0:         2891
  -1-0-1-0:         2842 / 0-1-0-1-0:         3381

 Diagonal elements of averaged one-particle density matrix:
       2       3       4       5       6       7       8
  0.9930  0.9845  0.9875  0.9914  0.0148  0.0180  0.0109
  0.9878  0.6561  0.6622  0.6622  0.0111  0.0128  0.0078

 Orbital energies:
 -------- Doubly-occupied orbitals (highest several orbs.) -------
             1
 -1.598456D+01
 -------- Active orbitals ----------------------------------------
             2            3            4            5            6
 -1.504245D+00-8.059057D-01-1.005883D+00-7.362140D-01 2.686871D-01
             7            8
  1.789252D-01 4.122803D-01
 -------- External orbitals (lowest several orbs.) ---------------
             9           10           11           12           13
  1.262855D-01 1.980061D-01 2.428152D-01 5.292133D-01 5.763828D-01
            14           15           16           17           18
  6.535758D-01 8.447761D-01 1.021476D+00 1.089458D+00 1.239920D+00

 *** Quasi-degeneracy checking

 === Det (|Ci| > 1.0D-01 and dE < 5.0D-03)

 # of small denominators (single excitations)
 State       dEmin  dE < 5.0D-03  dE < 5.0D-04  dE < 5.0D-05  dE < 5.0D-06
 ----- ----------- ------------- ------------- ------------- -------------
     1    5.00D-03             0             0             0             0
     2    5.00D-03             0             0             0             0
     3    5.00D-03             0             0             0             0

 # of small denominators (double excitations)
 State       dEmin  dE < 5.0D-03  dE < 5.0D-04  dE < 5.0D-05  dE < 5.0D-06
 ----- ----------- ------------- ------------- ------------- -------------
     1    5.00D-03             0             0             0             0
     2    5.00D-03             0             0             0             0
     3    5.00D-03             0             0             0             0

 *** Zeroth-Order Setup (Granovsky's zeroth-order vectors)
 Zeroth-order effective Hamiltonian
  (= Sum_i e(i)*<I|a+(i)a(i)|J> ):
                   1            2            3
     1 -7.261077D+00
     2 -1.106730D-02-7.214176D+00
     3 -9.172120D-04 3.828936D-03-6.999990D+00

 Zeroth-order vectors:
 State #    1
       MC st            1           2           3
       Coeff    9.758D-01   2.187D-01   2.189D-04
 State #    2
       MC st            2           1           3
       Coeff   -9.756D-01   2.186D-01   1.859D-02
 State #    3
       MC st            3           2           1
       Coeff    9.998D-01   1.809D-02  -4.278D-03

 *** GMC-QDPT computation

 (Integral reading:  CPU/Wall time =           0.00 /           0.00 sec.)

 One-external:
   0 -ionized terms: CPU/Wall time =           0.04 /           0.04 sec.
 (-1)-ionized terms: CPU/Wall time =           0.08 /           0.08 sec.
 (+1)-ionized terms: CPU/Wall time =           0.03 /           0.02 sec.
 (+1)-ionized terms: CPU/Wall time =           0.00 /           0.01 sec.
 (+2)-ionized terms: CPU/Wall time =           0.00 /           0.00 sec.

 Internal:
 # of macro loops for internal contribution =         1 (input)
 Loop:    1
 Dimension of internal CISD space     =         0  (after screening)
 Space construction: CPU/Wall time =           0.02 /           0.02 sec.
 Internal terms:     CPU/Wall time =           0.00 /           0.00 sec.

 Two-external:
   0 -ionized terms: CPU/Wall time =           0.06 /           0.06 sec.
 (-1)-ionized terms: CPU/Wall time =           1.00 /           1.00 sec.
 (-2)-ionized terms: CPU/Wall time =           0.17 /           0.17 sec.

 Total time:         CPU/Wall time =           1.40 /           1.40 sec.

 ***                  ***
 *** GMC-QDPT Results ***
 ***                  ***

 Diagonal elements of effective Hamiltonian:
 Heff(  1) =   -55.94374843
 Heff(  2) =   -55.85451497
 Heff(  3) =   -55.66068740

 Off-diagonal elements of effective Hamiltonian:
                   1            2
     2 -2.024930D-02
     3 -2.282511D-05 3.413013D-03

 ******** GMC-QDPT energies ********
 ----------------------------------------------------------------------------
   State                        1st order                           2nd order
 ----------------------------------------------------------------------------
     1     E(REF-CI)=      -55.8494023473   E(GMC-QDPT2)=      -55.9481302035
     2     E(REF-CI)=      -55.7425811497   E(GMC-QDPT2)=      -55.8501937870
     3     E(REF-CI)=      -55.5491786996   E(GMC-QDPT2)=      -55.6606268101
 ----------------------------------------------------------------------------

 Excitation energies (invalid if E(1)/=E(GS)):
 ----------------------------------------------------------------------------
   State                        1st order                           2nd order
 ----------------------------------------------------------------------------

     TZ Sorted GMC-PT ENERGIES:
         1      -55.9481302035
         2      -55.8501937870
         3      -55.6606268101
     2     E(REF-CI)=        2.9067543 eV   E(GMC-QDPT2)=        2.6649870 eV
     3     E(REF-CI)=        8.1695058 eV   E(GMC-QDPT2)=        7.8233698 eV
 ----------------------------------------------------------------------------

 Main characters of perturbed GMC-QDPT states:

 State #    1  Energy =     -55.948130203  S =  0.500

      Det      Coef    Occupancy (Ignoring core)
      ---      ----    --------- --------- -----
        1    0.972889  11110001110000
       71    0.082727  11110001011000
      179    0.060019  10111001010100
      393    0.055074  10110101010010
      717    0.056917  11010011100001

 State #    2  Energy =     -55.850193787  S =  0.500

      Det      Coef    Occupancy (Ignoring core)
      ---      ----    --------- --------- -----
        1    0.086112  11110001110000
       71   -0.978292  11110001011000
      822    0.057241  11010011001001

 State #    3  Energy =     -55.660626810  S =  0.500

      Det      Coef    Occupancy (Ignoring core)
      ---      ----    --------- --------- -----
       36    0.975720  11110001101000
      249    0.061627  10111001001100
      463    0.055490  10110101001010

 <<<Max |V/de| = 2.860D-02  Thresh = 1.000D+00

 Oscillator strength (invalid if E(1)/=E(GS)):
 ----------------------------------------------------------------------------
   State                        1st order                           2nd order
 ----------------------------------------------------------------------------
     2     F(REF-CI)=        0.0009190059     F(GMC-PT2)=        0.0008862281
     3     F(REF-CI)=        0.0042550860     F(GMC-PT2)=        0.0041462798
 ----------------------------------------------------------------------------

 Dipole moment matrix elements, x, y, z, in A.U.
States    1    1        0.2336272666        0.2210367895        0.7054014851
States    1    2       -0.0440663106       -0.0051613837       -0.1077267062
States    1    3        0.0422009800        0.1195276960       -0.0745970230
States    2    1       -0.0440663106       -0.0051613837       -0.1077267062
States    2    2        0.2312978896        0.0123561873        0.2926139001
States    2    3       -0.0874930238        0.1054380256       -0.0003624214
States    3    1        0.0422009800        0.1195276960       -0.0745970230
States    3    2       -0.0874930238        0.1054380256       -0.0003624214
States    3    3        0.4047457027        0.4545225706        0.2506632754

 Oscillator strength (valid only when positive): 
 ----------------------------------------------------------------------------
  States                        1st order                           2nd order
 ----------------------------------------------------------------------------
  1  1     F(REF-CI)=        0.0000000000     F(GMC-PT2)=        0.0000000000
  1  2     F(REF-CI)=       -0.0009190059     F(GMC-PT2)=       -0.0008862281
  1  3     F(REF-CI)=       -0.0042550860     F(GMC-PT2)=       -0.0041462798
  2  1     F(REF-CI)=        0.0009190059     F(GMC-PT2)=        0.0008862281
  2  2     F(REF-CI)=        0.0000000000     F(GMC-PT2)=        0.0000000000
  2  3     F(REF-CI)=       -0.0024428890     F(GMC-PT2)=       -0.0023724102
  3  1     F(REF-CI)=        0.0042550860     F(GMC-PT2)=        0.0041462798
  3  2     F(REF-CI)=        0.0024428890     F(GMC-PT2)=        0.0023724102
  3  3     F(REF-CI)=        0.0000000000     F(GMC-PT2)=        0.0000000000
 CPU     0: STEP CPU TIME=     1.87 TOTAL CPU TIME=         13.8 (      0.2 MIN)
 TOTAL WALL CLOCK TIME=         13.8 SECONDS, CPU UTILIZATION IS    99.93%

     !!! DIABATIZATION FOR REF CI STATES !!!

 *******************************************************
          $DMO GROUP FOUND IN THE INPUT.
        DIABATIZATION OF ADIABATIC STATES BEGINS.
     PROGRAMMED BY TAO ZENG (CARLETON UNIVERSITY).
               Email: toby.zeng@carleton.ca
     See T. Zeng, J. Chem. Phys. 2017, 146, 144103
 *******************************************************

 *************************************************************************
     STEP 1: TRANSFORMATION OF ADIABATIC STATES TO THE DMO REPRESENTATION
         See Atchity and Ruedenberg, J. Chem. Phys. 1999, 111, 2910
 *************************************************************************

Read in Diabatic Molecualr Orbitals:

                      1          2          3          4          5

    1  N  1  S    0.008609   0.000000   0.000000  -0.013219   0.279491
    2  N  1  S    0.442914  -0.000000   0.000000  -0.184329   0.867803
    3  N  1  S    0.276913   0.000000  -0.000000  -0.288315   0.144236
    4  N  1  X   -0.000000   0.493155  -0.024636  -0.000000  -0.000000
    5  N  1  Y    0.000000   0.024636   0.493155  -0.000000   0.000000
    6  N  1  Z    0.090197   0.000000   0.000000   0.593421   0.705309
    7  N  1  X   -0.000000   0.210628  -0.010522   0.000000   0.000000
    8  N  1  Y    0.000000   0.010522   0.210628  -0.000000  -0.000000
    9  N  1  Z   -0.004381   0.000000   0.000000   0.381592  -0.106092
   10  N  1 XX   -0.000457   0.010719  -0.000535  -0.012387   0.006153
   11  N  1 YY   -0.000457  -0.010719   0.000535  -0.012387   0.006153
   12  N  1 ZZ    0.000914  -0.000000   0.000000   0.024773  -0.012306
   13  N  1 XY    0.000000  -0.000618  -0.012377  -0.000000   0.000000
   14  N  1 XZ   -0.000000   0.026529  -0.001325  -0.000000   0.000000
   15  N  1 YZ    0.000000   0.001325   0.026529  -0.000000   0.000000
   16  H  2  S    0.194462  -0.176074   0.343485   0.112865  -0.523343
   17  H  2  S    0.003574  -0.023812   0.046452   0.024014  -0.054445
   18  H  2  X    0.018760   0.009101   0.022834   0.009336  -0.039151
   19  H  2  Y   -0.032493   0.022287  -0.020044  -0.016171   0.067811
   20  H  2  Z   -0.009251   0.008464  -0.016511   0.018769  -0.010566
   21  H  3  S    0.194462  -0.209430  -0.324227   0.112865  -0.523343
   22  H  3  S    0.003574  -0.028322  -0.043847   0.024014  -0.054445
   23  H  3  X    0.018760   0.006781  -0.023627   0.009336  -0.039151
   24  H  3  Y    0.032493  -0.024174  -0.017723   0.016171  -0.067811
   25  H  3  Z   -0.009251   0.010067   0.015585   0.018769  -0.010566
   26  H  4  S    0.194462   0.385503  -0.019258   0.112865  -0.523343
   27  H  4  S    0.003574   0.052134  -0.002604   0.024014  -0.054445
   28  H  4  X   -0.037519  -0.032295   0.001613  -0.018672   0.078302
   29  H  4  Y    0.000000   0.001067   0.021353  -0.000000   0.000000
   30  H  4  Z   -0.009251  -0.018530   0.000926   0.018769  -0.010566

                      6          7

    1  N  1  S    0.000000  -0.000000
    2  N  1  S    0.000000  -0.000000
    3  N  1  S   -0.000000   0.000000
    4  N  1  X   -0.930415  -0.002083
    5  N  1  Y   -0.002083   0.930415
    6  N  1  Z   -0.000000   0.000000
    7  N  1  X   -0.046866  -0.000105
    8  N  1  Y   -0.000105   0.046866
    9  N  1  Z   -0.000000   0.000000
   10  N  1 XX    0.001538   0.000003
   11  N  1 YY   -0.001538  -0.000003
   12  N  1 ZZ   -0.000000   0.000000
   13  N  1 XY   -0.000004   0.001776
   14  N  1 XZ    0.039985   0.000090
   15  N  1 YZ    0.000090  -0.039985
   16  H  2  S   -0.362630  -0.631354
   17  H  2  S   -0.065964  -0.114846
   18  H  2  X    0.002763  -0.037520
   19  H  2  Y    0.037435   0.040736
   20  H  2  Z    0.001882   0.003276
   21  H  3  S   -0.365454   0.629724
   22  H  3  S   -0.066477   0.114549
   23  H  3  X    0.002595   0.037532
   24  H  3  Y   -0.037617   0.040567
   25  H  3  Z    0.001896  -0.003268
   26  H  4  S    0.728084   0.001630
   27  H  4  S    0.132441   0.000297
   28  H  4  X   -0.062317  -0.000140
   29  H  4  Y    0.000055  -0.024345
   30  H  4  Z   -0.003778  -0.000008

NUMBER OF SUB ACTIVE SPACES:   1
ROTATE ACTIVE MOS TO DMOS IN EACH SUB-SPACE

SPACE  1:

OVERLAP BETWEEN ORTHONORMAL AND PRE-ORTHONORMAL REF. DMOS

             1           2           3           4           5

    1    0.9814775   0.0238747   0.0062182  -0.0066425  -0.0013752
    2    0.0238747   0.9179590   0.0617485   0.0335420  -0.0567686
    3    0.0062182   0.0617485   1.0137553   0.0194387  -0.0492274
    4   -0.0066425   0.0335420   0.0194387   0.9949743  -0.0083067
    5   -0.0013752  -0.0567686  -0.0492274  -0.0083067   1.1214953
    6   -0.0008522  -0.0568163   0.0616181   0.0366975   0.0017563
    7    0.0027581  -0.0462255  -0.0301263  -0.0360737   0.0602195

             6           7

    1   -0.0008522   0.0027581
    2   -0.0568163  -0.0462255
    3    0.0616181  -0.0301263
    4    0.0366975  -0.0360737
    5    0.0017563   0.0602195
    6    1.0555354   0.0047466
    7    0.0047466   1.0257427
REFERENCE DMOS AFTER ORTHONORMALIZATION:

                      1          2          3          4          5

    1  N  1  S    0.008662   0.014307   0.011070  -0.012353   0.251106
    2  N  1  S    0.450139   0.038539   0.034331  -0.179760   0.779176
    3  N  1  S    0.280121   0.010385   0.008277  -0.288360   0.128646
    4  N  1  X   -0.012501   0.486698  -0.000262   0.016126   0.024834
    5  N  1  Y   -0.006598   0.034599   0.512368   0.023437  -0.025269
    6  N  1  Z    0.096490   0.011389   0.018949   0.601887   0.635738
    7  N  1  X   -0.005546   0.230458  -0.021647  -0.005843   0.010230
    8  N  1  Y   -0.001482  -0.000380   0.210443  -0.001724   0.006459
    9  N  1  Z   -0.001529  -0.019151  -0.009397   0.384713  -0.094076
   10  N  1 XX   -0.000846   0.012755  -0.000929  -0.012923   0.006005
   11  N  1 YY   -0.000277  -0.011207   0.001757  -0.012044   0.004972
   12  N  1 ZZ    0.001122  -0.001548  -0.000828   0.024967  -0.010977
   13  N  1 XY    0.000070   0.000218  -0.012258   0.000253  -0.000603
   14  N  1 XZ   -0.000726   0.031984  -0.005546  -0.002403   0.001239
   15  N  1 YZ   -0.000012  -0.002032   0.025407  -0.001753   0.003072
   16  H  2  S    0.204822  -0.303832   0.338535   0.107472  -0.433909
   17  H  2  S    0.004718  -0.042348   0.046750   0.022876  -0.042509
   18  H  2  X    0.018989   0.004277   0.019348   0.007436  -0.031957
   19  H  2  Y   -0.033933   0.035010  -0.019771  -0.016885   0.059179
   20  H  2  Z   -0.009447   0.009747  -0.017692   0.018796  -0.009816
   21  H  3  S    0.204150  -0.241674  -0.294850   0.160127  -0.523765
   22  H  3  S    0.004403  -0.031397  -0.037498   0.031967  -0.057558
   23  H  3  X    0.018991   0.008053  -0.025028   0.010675  -0.037584
   24  H  3  Y    0.033857  -0.031063  -0.015815   0.020197  -0.064753
   25  H  3  Z   -0.009621   0.009098   0.014048   0.018075  -0.008158
   26  H  4  S    0.188541   0.438617  -0.112590   0.073418  -0.452064
   27  H  4  S    0.002374   0.062615  -0.016686   0.017405  -0.046468
   28  H  4  X   -0.037512  -0.034194   0.011091  -0.015454   0.068809
   29  H  4  Y   -0.000039  -0.001297   0.020638  -0.001149   0.002087
   30  H  4  Z   -0.008795  -0.021754   0.001762   0.019637  -0.010324

                      6          7

    1  N  1  S    0.000206  -0.014231
    2  N  1  S    0.005614  -0.050557
    3  N  1  S    0.010193  -0.017783
    4  N  1  X   -0.855965   0.022998
    5  N  1  Y   -0.034965   0.926160
    6  N  1  Z   -0.022330  -0.015242
    7  N  1  X   -0.030590   0.008998
    8  N  1  Y   -0.012588   0.051476
    9  N  1  Z   -0.013783   0.017982
   10  N  1 XX    0.002638  -0.000266
   11  N  1 YY   -0.001747  -0.001163
   12  N  1 ZZ   -0.000890   0.001430
   13  N  1 XY    0.000709   0.001422
   14  N  1 XZ    0.040003   0.001025
   15  N  1 YZ   -0.001278  -0.038563
   16  H  2  S   -0.379869  -0.588798
   17  H  2  S   -0.067733  -0.108898
   18  H  2  X    0.001680  -0.033738
   19  H  2  Y    0.038800   0.036554
   20  H  2  Z    0.002676   0.004364
   21  H  3  S   -0.349394   0.631818
   22  H  3  S   -0.064005   0.113946
   23  H  3  X    0.003886   0.038730
   24  H  3  Y   -0.037143   0.042278
   25  H  3  Z    0.000849  -0.001227
   26  H  4  S    0.718116   0.043341
   27  H  4  S    0.129267   0.005356
   28  H  4  X   -0.061109  -0.005551
   29  H  4  Y   -0.001082  -0.023344
   30  H  4  Z   -0.005528   0.000409

 -------------------------------------------
       MAXIMIZING MORMO OVERLAP TERM        
 -------------------------------------------
   SWEEP    VALUE       PROGRESS
     0     4.88584
     1     6.95207     2.06622657
     2     6.96176     0.00969413
     3     6.96176     0.00000096
     4     6.96176     0.00000000
     5     6.96176     0.00000000
 THE ROTATION IS DONE
FLIPPING SIGN FOR ORBITAL   7
ACTIVE ORBITALS AFTER MORMO:

                      1          2          3          4          5

    1  N  1  S    0.007244   0.021665   0.011172  -0.012116   0.207768
    2  N  1  S    0.431218   0.050149   0.018431  -0.187357   0.724001
    3  N  1  S    0.323618  -0.035167   0.012708  -0.276081   0.193967
    4  N  1  X   -0.003370   0.446911   0.013966   0.030217   0.009627
    5  N  1  Y   -0.010433   0.050996   0.499059   0.022019  -0.031892
    6  N  1  Z    0.085673   0.029618   0.025911   0.601673   0.615538
    7  N  1  X   -0.016983   0.288285  -0.063457  -0.040807   0.037223
    8  N  1  Y    0.002242  -0.044136   0.198754  -0.024653   0.025135
    9  N  1  Z    0.021444  -0.052835  -0.026869   0.384936  -0.066241
   10  N  1 XX   -0.003945   0.021332  -0.002485  -0.012989   0.030202
   11  N  1 YY    0.003648  -0.021147   0.003126  -0.009191  -0.034660
   12  N  1 ZZ    0.000296  -0.000185  -0.000641   0.022180   0.004457
   13  N  1 XY    0.003747  -0.001154  -0.006081  -0.002597  -0.031574
   14  N  1 XZ    0.000864   0.023169  -0.006240   0.000543  -0.030283
   15  N  1 YZ    0.002961  -0.002976   0.017769  -0.003706  -0.018029
   16  H  2  S    0.186801  -0.213325   0.328049   0.102153  -0.429317
   17  H  2  S    0.006074  -0.097836   0.076632   0.031315  -0.054402
   18  H  2  X    0.001706   0.019384   0.001025   0.001250  -0.020441
   19  H  2  Y   -0.031589   0.019652  -0.032309  -0.014750   0.048886
   20  H  2  Z   -0.007413   0.001241  -0.019324   0.018102  -0.019027
   21  H  3  S    0.184738  -0.226177  -0.316476   0.130036  -0.513977
   22  H  3  S    0.000234  -0.035684  -0.030154   0.033971  -0.062318
   23  H  3  X    0.012846   0.011541  -0.020209   0.004110  -0.021784
   24  H  3  Y    0.032961  -0.026401  -0.031546   0.013230  -0.058469
   25  H  3  Z   -0.003450   0.004687   0.009466   0.021543  -0.011601
   26  H  4  S    0.185060   0.398418  -0.061826   0.089373  -0.472069
   27  H  4  S    0.001715   0.116250  -0.052731   0.021806  -0.061055
   28  H  4  X   -0.031286  -0.023573   0.000379  -0.018564   0.057739
   29  H  4  Y   -0.009246  -0.012735   0.019195  -0.002321  -0.006112
   30  H  4  Z   -0.012803  -0.028002  -0.002165   0.017438  -0.009540

                      6          7

    1  N  1  S    0.039535  -0.061423
    2  N  1  S    0.091541  -0.130839
    3  N  1  S   -0.106874   0.093648
    4  N  1  X   -0.855548   0.002994
    5  N  1  Y   -0.010043   0.913052
    6  N  1  Z   -0.048643  -0.007993
    7  N  1  X   -0.030757   0.046893
    8  N  1  Y   -0.055666   0.088363
    9  N  1  Z    0.000447   0.031504
   10  N  1 XX    0.036737   0.017538
   11  N  1 YY   -0.045507  -0.003590
   12  N  1 ZZ    0.008770  -0.013949
   13  N  1 XY    0.016958  -0.025301
   14  N  1 XZ    0.020333  -0.006179
   15  N  1 YZ    0.014185  -0.050586
   16  H  2  S   -0.300098  -0.586845
   17  H  2  S   -0.121256  -0.159425
   18  H  2  X    0.030314  -0.019904
   19  H  2  Y    0.028952   0.046429
   20  H  2  Z    0.018623  -0.010541
   21  H  3  S   -0.331519   0.623036
   22  H  3  S   -0.067622   0.120114
   23  H  3  X   -0.002731   0.025210
   24  H  3  Y   -0.027718   0.056851
   25  H  3  Z   -0.000864   0.019649
   26  H  4  S    0.682823  -0.013253
   27  H  4  S    0.199105   0.039266
   28  H  4  X   -0.041290   0.005472
   29  H  4  Y   -0.003958  -0.044634
   30  H  4  Z   -0.012508  -0.014475

Actually Used Diabatic Molecualr Orbitals:

                      1          2          3          4          5

    1  N  1  S    0.007244   0.021665   0.011172  -0.012116   0.207768
    2  N  1  S    0.431218   0.050149   0.018431  -0.187357   0.724001
    3  N  1  S    0.323618  -0.035167   0.012708  -0.276081   0.193967
    4  N  1  X   -0.003370   0.446911   0.013966   0.030217   0.009627
    5  N  1  Y   -0.010433   0.050996   0.499059   0.022019  -0.031892
    6  N  1  Z    0.085673   0.029618   0.025911   0.601673   0.615538
    7  N  1  X   -0.016983   0.288285  -0.063457  -0.040807   0.037223
    8  N  1  Y    0.002242  -0.044136   0.198754  -0.024653   0.025135
    9  N  1  Z    0.021444  -0.052835  -0.026869   0.384936  -0.066241
   10  N  1 XX   -0.003945   0.021332  -0.002485  -0.012989   0.030202
   11  N  1 YY    0.003648  -0.021147   0.003126  -0.009191  -0.034660
   12  N  1 ZZ    0.000296  -0.000185  -0.000641   0.022180   0.004457
   13  N  1 XY    0.003747  -0.001154  -0.006081  -0.002597  -0.031574
   14  N  1 XZ    0.000864   0.023169  -0.006240   0.000543  -0.030283
[...]
     3    3   -0.000967

WEIGHT OF LISTED PROTOTYPES:   91.72%

     STATE:    3
 Group Ref#    Coefficients
     1    1   -0.003803
     2    2   -0.000967
     3    3    0.953793

WEIGHT OF LISTED PROTOTYPES:   90.97%

 --------------------------------------------------
 IN DIRECT MAX. DIABATIZATION FOR GMC-QDPT

 DIRECT MAXIMIZATION (DM) WITHOUT TRUNCATING ADIABATS
 EXPANSIONS INTO THE REFERENCE CONFIGURATION SPACE
 --------------------------------------------------

 -------------------------------------------
 - DM DIABT PT HAMILTONIAN MATRIX ELEMENTS -
 -------------------------------------------
                                            
 --- DIABATIC ENERGIES (DIAGONAL ELEMENT) ---       HARTREE            EV
 STATE #  1'S GMC-PT-LEVEL DIABATIC ENERGY=     -55.936594728       0.000000000
 STATE #  2'S GMC-PT-LEVEL DIABATIC ENERGY=     -55.825188402       3.031520545
 STATE #  3'S GMC-PT-LEVEL DIABATIC ENERGY=     -55.697167671       6.515142050

 --- DIABATIC COUPLINGS (OFF DIAGONAL ELEMENTS)---  HATREE            EV
 STATE #  1 &  2'S GMC-PT-LEVEL COUPLING  =      -0.036948848      -1.005429366
 STATE #  1 &  3'S GMC-PT-LEVEL COUPLING  =      -0.030238879      -0.822841818
 STATE #  2 &  3'S GMC-PT-LEVEL COUPLING  =       0.068777111       1.871520524

 ---------------------------------------
     - ROTATION TO DIABATIC STATES -    
 ---------------------------------------
 ROWS=ADIABATIC, COLUMNS=DIABATIC STATES

             1           2           3

    1   -0.9632124  -0.2652179  -0.0433752
    2    0.2206409  -0.8725889   0.4357823
    3    0.1534260  -0.4101806  -0.8990063

 ---------------------------------------
          - DIABATIC STATES -           
 ---------------------------------------

 State #    1  Energy =     -55.936594728

      Det      Coef        Coefp    Occupancy (Ignoring core)
      ---      ----        ----    --------- --------- -----
        1    0.937555   -0.937555  222+000
        8   -0.135495    0.135495  2-2+0+0
      386    0.104905   -0.104905  2+2+0-0
        4   -0.095183    0.095183  2-2++00
      176    0.091760   -0.091760  2+2+-00
        7    0.081023    0.081023  22-+0+0
      351   -0.075616   -0.075616  22++0-0
      393   -0.071487   -0.071487  202+020
      717   -0.065518   -0.065518  220+002
        6    0.062527   -0.062527  22200+0
        3   -0.061536   -0.061536  22-++00
      141    0.060107    0.060107  22++-00
       18   -0.052739    0.052739  2-2+00+
      736    0.049922   -0.049922  2+2+00-
      708    0.042374   -0.042374  2-++0+-
       16   -0.041959    0.041959  222000+
      402    0.039283   -0.039283  2+-+0-+
      215   -0.037914   -0.037914  022+200
      705   -0.034631   -0.034631  -2+++0-
      227   -0.034490   -0.034490  +2-+-0+
      218    0.033999   -0.033999  +-2+-+0
      390    0.033577   -0.033577  -+2++-0
       76    0.030590    0.030590  2+2-0+0
      212    0.030249    0.030249  +220200
      113   -0.028526    0.028526  +-220+0
      143   -0.028024   -0.028024  220+200
       13    0.026517    0.026517  2--+++0
     1051   -0.026412   -0.026412  2+++0--
       51   -0.026183    0.026183  22+-00+
      387   -0.026122    0.026122  2+20+-0
      424   -0.025980   -0.025980  +-2++-0
      184   -0.024229   -0.024229  -+2+-+0
      561    0.023480    0.023480  2+++--0
      773    0.023456   -0.023456  +2-++0-
       29   -0.023298   -0.023298  2--+0++
      702    0.023176    0.023176  22+0+0-
      122    0.023120    0.023120  +2-200+
      159    0.022898   -0.022898  -2++-0+
      391    0.022287   -0.022287  2+20020
       11    0.022236   -0.022236  2-20++0
      147    0.022142   -0.022142  220+-+0
      353   -0.021295   -0.021295  220++-0
      183   -0.020653    0.020653  202+-+0
        5    0.020540    0.020540  -22++00
       17    0.020392    0.020392  22-+00+

 State #    2  Energy =     -55.825188402

      Det      Coef        Coefp    Occupancy (Ignoring core)
      ---      ----        ----    --------- --------- -----
       71   -0.939457    0.939457  2+22000
       74    0.126441   -0.126441  2022+00
       76    0.094957    0.094957  2+2-0+0
       78    0.089277   -0.089277  20220+0
       77    0.087242   -0.087242  2+-20+0
      386   -0.080870    0.080870  2+2+0-0
      456   -0.077362   -0.077362  2++20-0
      246    0.075257    0.075257  2++2-00
      822    0.063812   -0.063812  2+02002
       73   -0.059785    0.059785  2+-2+00
      106    0.056902    0.056902  +222000
       88    0.052206   -0.052206  202200+
      736    0.051923   -0.051923  2+2+00-
       86   -0.049371   -0.049371  2+2-00+
      813    0.046553   -0.046553  20+20+-
       36    0.044936    0.044936  22+2000
      113    0.038275   -0.038275  +-220+0
      323   -0.038219    0.038219  +022-+0
      320    0.037490    0.037490  0+22200
       81    0.035361    0.035361  202-++0
      810   -0.035194   -0.035194  -++2+0-
       99   -0.034730    0.034730  20-20++
      183   -0.032849    0.032849  202+-+0
      180   -0.032662    0.032662  -+2+200
      332   -0.032651    0.032651  ++-2-0+
      317    0.032119   -0.032119  ++2-200
      177    0.031505   -0.031505  2+20200
       38   -0.030103    0.030103  2202+00
      111    0.028659   -0.028659  +22-0+0
       83    0.028063   -0.028063  20-2++0
      248    0.027808   -0.027808  2+02200
       72   -0.026254   -0.026254  2+2-+00
      393   -0.025968   -0.025968  202+020
      252   -0.025077   -0.025077  2+02-+0
      529    0.024875    0.024875  +022+-0
      807   -0.024125    0.024125  2++-+0-
      192   -0.023533    0.023533  2+-+-0+
      526   -0.023043   -0.023043  ++220-0
      806    0.022869    0.022869  2++200-
      878    0.022420    0.022420  ++-2+0-
      264    0.021850   -0.021850  -++2-0+
        6    0.021307   -0.021307  22200+0
      534    0.021197    0.021197  0+22020
       51    0.020236   -0.020236  22+-00+

 State #    3  Energy =     -55.697167671

      Det      Coef        Coefp    Occupancy (Ignoring core)
      ---      ----        ----    --------- --------- -----
       36   -0.941609   -0.941609  22+2000
      456   -0.108683   -0.108683  2++20-0
      246   -0.101301   -0.101301  2++2-00
       43    0.090421    0.090421  2-+20+0
      463    0.076363   -0.076363  20+2020
       42   -0.074344    0.074344  22020+0
       39    0.070448    0.070448  2-+2+00
      351   -0.065212   -0.065212  22++0-0
       38    0.063090   -0.063090  2202+00
       53    0.056813    0.056813  2-+200+
       51   -0.055059    0.055059  22+-00+
      806   -0.054620   -0.054620  2++200-
       41    0.050191   -0.050191  22+-0+0
      701    0.049429    0.049429  22++00-
      472   -0.047629   -0.047629  2+020-+
       71   -0.045208    0.045208  2+22000
      121   -0.041682    0.041682  +22-00+
       52    0.040835   -0.040835  220200+
      112   -0.039907   -0.039907  +2-20+0
      285    0.039003   -0.039003  02+2200
      460   -0.036508   -0.036508  -++2+-0
       64    0.034842   -0.034842  2-020++
      297    0.034478   -0.034478  +202-0+
       37   -0.033911    0.033911  22+-+00
      288   -0.033844   -0.033844  +-+2-+0
      282    0.033035    0.033035  +2+-200
      145   -0.032074   -0.032074  -2++200
      457   -0.031993    0.031993  2++-+-0
      142    0.031675    0.031675  22+0200
       73    0.030852   -0.030852  2+-2+00
      148   -0.030378   -0.030378  2-++-+0
       46    0.027052   -0.027052  2-+-++0
      254    0.026959   -0.026959  -++2-+0
       16   -0.026920    0.026920  222000+
      281    0.026365   -0.026365  +2+2-00
      106    0.026285    0.026285  +222000
      561    0.025631    0.025631  2+++--0
      461    0.025458   -0.025458  2++-020
      358   -0.025431    0.025431  2-++020
      494    0.024690   -0.024690  +-+2+-0
      157    0.024299   -0.024299  220+-0+
      108   -0.023629   -0.023629  +2-2+00
        3    0.022768    0.022768  22-++00
      249    0.022389   -0.022389  20+2200
      771    0.022151    0.022151  +22+00-
      716    0.021736    0.021736  22+0002
      843   -0.020618   -0.020618  +202+0-
       48   -0.020427    0.020427  2-02++0

 ---------------------------------------
      - DIABATIC STATES IN CMO -        
 ---------------------------------------

 State #    1  Energy =     -55.936594728

      Det      Coef        Coefp    Occupancy (Ignoring core)
      ---      ----        ----    --------- --------- -----
        1    0.918963   -0.918963  222+000
       71    0.293838   -0.293838  2+22000
       36    0.147147    0.147147  22+2000
      393   -0.058078   -0.058078  202+020
      717   -0.056484   -0.056484  220+002
      179   -0.054120   -0.054120  202+200
       17   -0.035841   -0.035841  22-+00+
      391   -0.035588    0.035588  2+20020
      106   -0.034224   -0.034224  +222000
        4    0.033779   -0.033779  2-2++00
      389    0.032682    0.032682  202++-0
      394    0.032348   -0.032348  -+2+020
        6    0.031594   -0.031594  22200+0
      357   -0.029173   -0.029173  220+020
      214    0.026907    0.026907  +-2+200
      215   -0.026785   -0.026785  022+200
      402   -0.026704    0.026704  2+-+0-+
      180   -0.026576    0.026576  -+2+200
      178    0.026358    0.026358  2+-+200
      183   -0.026330    0.026330  202+-+0
      144   -0.025971    0.025971  2-++200
      428   -0.025928   -0.025928  +-2+020
       72   -0.025338   -0.025338  2+2-+00
      429   -0.024869   -0.024869  022+020
      143   -0.022936   -0.022936  220+200
       78   -0.022846    0.022846  20220+0
      426    0.022204    0.022204  +220020
        3    0.021707    0.021707  22-++00
      113   -0.021603    0.021603  +-220+0
      109    0.021306   -0.021306  +-22+00
       51    0.020979   -0.020979  22+-00+
      392   -0.020968   -0.020968  2+-+020
      709    0.020814    0.020814  -2++0+-
      787   -0.020408    0.020408  +2-+002
      706   -0.020371   -0.020371  22+00+-
      437    0.020259    0.020259  +2-+0-+

 State #    2  Energy =     -55.825188402

      Det      Coef        Coefp    Occupancy (Ignoring core)
      ---      ----        ----    --------- --------- -----
       71   -0.827171    0.827171  2+22000
       36   -0.410837   -0.410837  22+2000
        1    0.330859   -0.330859  222+000
      822    0.053570   -0.053570  2+02002
      462    0.038760   -0.038760  2+02020
      463    0.038722   -0.038722  20+2020
      113    0.035177   -0.035177  +-220+0
      179   -0.030610   -0.030610  202+200
      107   -0.026808    0.026808  +22-+00
      320    0.026431    0.026431  0+22200
      108   -0.024687   -0.024687  +2-2+00
      461   -0.023060    0.023060  2++-020
      811    0.023051   -0.023051  2++-0+-
        6    0.022560   -0.022560  22200+0
       42   -0.022479    0.022479  22020+0
      809    0.022455   -0.022455  20+2+0-
      533    0.022407    0.022407  +022020
      534    0.022325    0.022325  0+22020
      177    0.022308   -0.022308  2+20200
      109   -0.022102    0.022102  +-22+00
       83    0.021701   -0.021701  20-2++0
       78    0.021399   -0.021399  20220+0
      813   -0.021269    0.021269  20+20+-
      319   -0.021145   -0.021145  +022200
      391    0.021083   -0.021083  2+20020
        2   -0.020781    0.020781  2220+00
      751    0.020516   -0.020516  2+20002
       81    0.020366    0.020366  202-++0

 State #    3  Energy =     -55.697167671

      Det      Coef        Coefp    Occupancy (Ignoring core)
      ---      ----        ----    --------- --------- -----
       36   -0.872771   -0.872771  22+2000
       71    0.439850   -0.439850  2+22000
      249    0.068752   -0.068752  20+2200
      463    0.041694   -0.041694  20+2020
      112   -0.039190   -0.039190  +2-20+0
      248   -0.038747    0.038747  2+02200
      121    0.038477   -0.038477  +22-00+
      253    0.037272    0.037272  20+2-+0
      356    0.032684    0.032684  22+0020
      250    0.032111    0.032111  -++2200
        7    0.029253    0.029253  22-+0+0
      109   -0.028542    0.028542  +-22+00
       76    0.028525    0.028525  2+2-0+0
        8   -0.027293    0.027293  2-2+0+0
      285    0.025766   -0.025766  02+2200
      284   -0.025676    0.025676  +-+2200
      499    0.025666   -0.025666  02+2020
      459   -0.025221    0.025221  20+2+-0
      498    0.025209   -0.025209  +-+2020
      111   -0.024683    0.024683  +22-0+0
      716    0.024034    0.024034  22+0002
       52   -0.023703    0.023703  220200+
      262   -0.023364   -0.023364  2+02-0+
      358    0.022981   -0.022981  2-++020
      771   -0.022886   -0.022886  +22+00-
      464   -0.021947   -0.021947  -++2020
       41   -0.021749    0.021749  22+-0+0
      359   -0.021293   -0.021293  -2++020
       74    0.020890   -0.020890  2022+00
       77    0.020847   -0.020847  2+-20+0
       51   -0.020799    0.020799  22+-00+
       44    0.020608   -0.020608  -2+20+0
      367   -0.020316    0.020316  220+0-+

 ---------------------------------------
    -DIABATIC STATES IN PROTOTYPES-     
 ---------------------------------------

     STATE:    1
 Group Ref#    Coefficients
     1    1    0.957254
     2    2    0.002500
     3    3   -0.003796

WEIGHT OF LISTED PROTOTYPES:   91.64%

     STATE:    2
 Group Ref#    Coefficients
     1    1    0.002499
     2    2    0.957716
     3    3   -0.000965

WEIGHT OF LISTED PROTOTYPES:   91.72%

     STATE:    3
 Group Ref#    Coefficients
     1    1   -0.003810
     2    2   -0.000969
     3    3    0.953794

WEIGHT OF LISTED PROTOTYPES:   90.97%

     DIRECT MAX. DIABATIZATION FINISHED    
 CPU     0: STEP CPU TIME=     0.24 TOTAL CPU TIME=         14.0 (      0.2 MIN)
 TOTAL WALL CLOCK TIME=         14.0 SECONDS, CPU UTILIZATION IS    99.93%

DIABATS FOR SPIN-ORBIT CALCULATION ARE READY

TRANSITION DIPOLES BETWEEN ADIABATS (in A.U.):

STATE PAIR      X         Y         Z
    1    1  0.233627  0.221037  0.705401
    2    1 -0.044066 -0.005161 -0.107727
    2    2  0.231298  0.012356  0.292614
    3    1  0.042201  0.119528 -0.074597
    3    2 -0.087493  0.105438 -0.000362
    3    3  0.404746  0.454523  0.250663


TRANSITION DIPOLES BETWEEN DIABATS (in A.U.):

STATE PAIR      X         Y         Z
    1    1  0.237875  0.190378  0.742414
    2    1 -0.010191  0.040148 -0.002503
    2    2  0.186799  0.200521  0.248240
    3    1  0.042858  0.038788  0.005233
    3    2  0.025228  0.260344 -0.021681
    3    3  0.444997  0.297017  0.258024

TRANSITION DIPOLES BETWEEN DIRECT MAX. DIABATS (in A.U.):

STATE PAIR      X         Y         Z
    1    1  0.237876  0.190378  0.742414
    2    1 -0.010191  0.040150 -0.002504
    2    2  0.186799  0.200522  0.248240
    3    1  0.042860  0.038789  0.005230
    3    2  0.025229  0.260344 -0.021680
    3    3  0.444997  0.297015  0.258024
 No $TRANST Group Found.
 Quit without doing spin-orbit coupling
 ..... DONE WITH MP2 ENERGY .....
 CPU     0: STEP CPU TIME=     0.01 TOTAL CPU TIME=         14.0 (      0.2 MIN)
 TOTAL WALL CLOCK TIME=         14.0 SECONDS, CPU UTILIZATION IS    99.93%
            100000000  WORDS OF DYNAMIC MEMORY USED
 EXECUTION OF GAMESS TERMINATED NORMALLY Wed Nov 16 19:55:47 2022
 DDI: 715512 bytes (0.7 MB / 0 MWords) used by master data server.

 ----------------------------------------
 CPU timing information for all processes
 ========================================
 0: 13.703 + 0.312 = 14.15
 ----------------------------------------
Note: The following floating-point exceptions are signalling: IEEE_DENORMAL
 ddikick.x: exited gracefully.
unset echo
----- accounting info -----
Files used on the master node io002 were:
-rw-r--r-- 1 bsonghao nooijen   20724 Nov 16 19:55 /scratch/bsonghao/nh3_diabatization_2d_at_mode_7_8_dist0.4_0.5.F05
-rw-r--r-- 1 bsonghao nooijen  363520 Nov 16 19:55 /scratch/bsonghao/nh3_diabatization_2d_at_mode_7_8_dist0.4_0.5.F09
-rw-r--r-- 1 bsonghao nooijen 1995920 Nov 16 19:55 /scratch/bsonghao/nh3_diabatization_2d_at_mode_7_8_dist0.4_0.5.F10
-rw-r--r-- 1 bsonghao nooijen  131264 Nov 16 19:55 /scratch/bsonghao/nh3_diabatization_2d_at_mode_7_8_dist0.4_0.5.F13
-rw-r--r-- 1 bsonghao nooijen  180312 Nov 16 19:55 /scratch/bsonghao/nh3_diabatization_2d_at_mode_7_8_dist0.4_0.5.F15
-rw-r--r-- 1 bsonghao nooijen       0 Nov 16 19:55 /scratch/bsonghao/nh3_diabatization_2d_at_mode_7_8_dist0.4_0.5.F16
-rw-r--r-- 1 bsonghao nooijen    9808 Nov 16 19:55 /scratch/bsonghao/nh3_diabatization_2d_at_mode_7_8_dist0.4_0.5.F70
-rw-r--r-- 1 bsonghao nooijen    9808 Nov 16 19:55 /scratch/bsonghao/nh3_diabatization_2d_at_mode_7_8_dist0.4_0.5.F71
-rw-r--r-- 1 bsonghao nooijen   19608 Nov 16 19:55 /scratch/bsonghao/nh3_diabatization_2d_at_mode_7_8_dist0.4_0.5.F72
-rw-r--r-- 1 bsonghao nooijen   19608 Nov 16 19:55 /scratch/bsonghao/nh3_diabatization_2d_at_mode_7_8_dist0.4_0.5.F73
-rw-r--r-- 1 bsonghao nooijen 1920824 Nov 16 19:55 /scratch/bsonghao/nh3_diabatization_2d_at_mode_7_8_dist0.4_0.5.F74
-rw-r--r-- 1 bsonghao nooijen       0 Nov 16 19:55 /scratch/bsonghao/nh3_diabatization_2d_at_mode_7_8_dist0.4_0.5.F75
-rw-r--r-- 1 bsonghao nooijen   58848 Nov 16 19:55 /scratch/bsonghao/nh3_diabatization_2d_at_mode_7_8_dist0.4_0.5.F76
-rw-r--r-- 1 bsonghao nooijen       0 Nov 16 19:55 /scratch/bsonghao/nh3_diabatization_2d_at_mode_7_8_dist0.4_0.5.F77
-rw-r--r-- 1 bsonghao nooijen    1864 Nov 16 19:55 /scratch/bsonghao/nh3_diabatization_2d_at_mode_7_8_dist0.4_0.5.F78
-rw-r--r-- 1 bsonghao nooijen   39208 Nov 16 19:55 /scratch/bsonghao/nh3_diabatization_2d_at_mode_7_8_dist0.4_0.5.F79
-rw-r--r-- 1 bsonghao nooijen     104 Nov 16 19:55 /scratch/bsonghao/nh3_diabatization_2d_at_mode_7_8_dist0.4_0.5.F80
-rw-r--r-- 1 bsonghao nooijen   13472 Nov 16 19:55 /scratch/bsonghao/nh3_diabatization_2d_at_mode_7_8_dist0.4_0.5.F81
-rw-r--r-- 1 bsonghao nooijen      16 Nov 16 19:55 /scratch/bsonghao/nh3_diabatization_2d_at_mode_7_8_dist0.4_0.5.F82
-rw-r--r-- 1 bsonghao nooijen   19216 Nov 16 19:55 /scratch/bsonghao/nh3_diabatization_2d_at_mode_7_8_dist0.4_0.5.F83
-rw-r--r-- 1 bsonghao nooijen   29712 Nov 16 19:55 /scratch/bsonghao/nh3_diabatization_2d_at_mode_7_8_dist0.4_0.5.F84
-rw-r--r-- 1 bsonghao nooijen  401576 Nov 16 19:55 /scratch/bsonghao/nh3_diabatization_2d_at_mode_7_8_dist0.4_0.5.F85
-rw-r--r-- 1 bsonghao nooijen  903672 Nov 16 19:55 /scratch/bsonghao/nh3_diabatization_2d_at_mode_7_8_dist0.4_0.5.F86
-rw-r--r-- 1 bsonghao nooijen     656 Nov 16 19:55 /scratch/bsonghao/nh3_diabatization_2d_at_mode_7_8_dist0.4_0.5.F87
-rw-r--r-- 1 bsonghao nooijen   38032 Nov 16 19:55 /scratch/bsonghao/nh3_diabatization_2d_at_mode_7_8_dist0.4_0.5.F88
-rw-r--r-- 1 bsonghao nooijen     240 Nov 16 19:55 /scratch/bsonghao/nh3_diabatization_2d_at_mode_7_8_dist0.4_0.5.F89
-rw-r--r-- 1 bsonghao nooijen       0 Nov 16 19:55 /scratch/bsonghao/nh3_diabatization_2d_at_mode_7_8_dist0.4_0.5.F90
-rw-r--r-- 1 bsonghao nooijen   13760 Nov 16 19:55 /scratch/bsonghao/nh3_diabatization_2d_at_mode_7_8_dist0.4_0.5.F91
-rw-r--r-- 1 bsonghao nooijen   22776 Nov 16 19:55 /scratch/bsonghao/nh3_diabatization_2d_at_mode_7_8_dist0.4_0.5.F92
-rw-r--r-- 1 bsonghao nooijen   23168 Nov 16 19:55 /scratch/bsonghao/nh3_diabatization_2d_at_mode_7_8_dist0.4_0.5.F93
-rw-r--r-- 1 bsonghao nooijen   22776 Nov 16 19:55 /scratch/bsonghao/nh3_diabatization_2d_at_mode_7_8_dist0.4_0.5.F94
-rw-r--r-- 1 bsonghao nooijen   13760 Nov 16 19:55 /scratch/bsonghao/nh3_diabatization_2d_at_mode_7_8_dist0.4_0.5.F95
-rw-r--r-- 1 bsonghao nooijen   29440 Nov 16 19:55 /scratch/bsonghao/nh3_diabatization_2d_at_mode_7_8_dist0.4_0.5.F96
-rw-r--r-- 1 bsonghao nooijen    1184 Nov 16 19:55 /scratch/bsonghao/nh3_diabatization_2d_at_mode_7_8_dist0.4_0.5.F97
-rw-r--r-- 1 bsonghao nooijen    9808 Nov 16 19:55 /scratch/bsonghao/nh3_diabatization_2d_at_mode_7_8_dist0.4_0.5.F98
-rw-r--r-- 1 bsonghao nooijen   30264 Nov 16 19:55 /scratch/bsonghao/nh3_diabatization_2d_at_mode_7_8_dist0.4_0.5.F99
ls: No match.
ls: No match.
ls: No match.
Wed 16 Nov 2022 07:55:50 PM EST
0.293u 0.042s 0:17.39 1.8%	0+0k 48+224io 0pf+0w
