----- GAMESS execution script 'rungms' -----
This job is running on host io002
under operating system Linux at Wed 16 Nov 2022 07:01:02 PM EST
Available scratch disk space (Kbyte units) at beginning of the job is
Filesystem       1K-blocks       Used   Available Use% Mounted on
/dev/sdc1      15378471580 3278917120 11318349060  23% /scratch
GAMESS temporary binary files will be written to /scratch/bsonghao
GAMESS supplementary output files will be written to /home/bsonghao/.gamess_ascii_files/267638
Copying input file nh3_diabatization_2d_at_mode_7_8_dist-0.3_0.1.inp to your run's scratch directory...
cp nh3_diabatization_2d_at_mode_7_8_dist-0.3_0.1.inp /scratch/bsonghao/nh3_diabatization_2d_at_mode_7_8_dist-0.3_0.1.F05
unset echo
/home/bjb2chen/gamess/ddikick.x /home/bjb2chen/gamess/gamess.00.x nh3_diabatization_2d_at_mode_7_8_dist-0.3_0.1 -ddi 1 1 io002 -scr /scratch/bsonghao

 Distributed Data Interface kickoff program.
 Initiating 1 compute processes on 1 nodes to run the following command:
 /home/bjb2chen/gamess/gamess.00.x nh3_diabatization_2d_at_mode_7_8_dist-0.3_0.1 

          ******************************************************
          *         GAMESS VERSION = 02 AUG 2018 (R2)         *
          *             FROM IOWA STATE UNIVERSITY             *
          * M.W.SCHMIDT, K.K.BALDRIDGE, J.A.BOATZ, S.T.ELBERT, *
          *   M.S.GORDON, J.H.JENSEN, S.KOSEKI, N.MATSUNAGA,   *
          *          K.A.NGUYEN, S.J.SU, T.L.WINDUS,           *
          *       TOGETHER WITH M.DUPUIS, J.A.MONTGOMERY       *
          *         J.COMPUT.CHEM.  14, 1347-1363(1993)        *
          **************** 64 BIT LINUX VERSION ****************

  SINCE 1993, STUDENTS AND POSTDOCS WORKING AT IOWA STATE UNIVERSITY
  AND ALSO IN THEIR VARIOUS JOBS AFTER LEAVING ISU HAVE MADE IMPORTANT
  CONTRIBUTIONS TO THE CODE:
     IVANA ADAMOVIC, CHRISTINE AIKENS, YURI ALEXEEV, POOJA ARORA,
     ANDREY ASADCHEV, ROB BELL, PRADIPTA BANDYOPADHYAY, JONATHAN BENTZ,
     BRETT BODE, KURT BRORSEN, CALEB CARLIN, GALINA CHABAN, WEI CHEN,
     CHEOL HO CHOI, PAUL DAY, ALBERT DEFUSCO, NUWAN DESILVA, TIM DUDLEY,
     DMITRI FEDOROV, ALEX FINDLATER, GRAHAM FLETCHER, MARK FREITAG,
     KURT GLAESEMANN, ANASTASIA GUININA,
     DAN KEMP, GRANT MERRILL, NORIYUKI MINEZAWA, JONATHAN MULLIN,
     TAKESHI NAGATA, SEAN NEDD, HEATHER NETZLOFF, BOSILJKA NJEGIC, RYAN OLSON,
     MIKE PAK, BUU PHAM,
     SPENCER PRUITT, LUKE ROSKOP, JIM SHOEMAKER, LYUDMILA SLIPCHENKO,
     TONY SMITH, SAROM SOK LEANG, JIE SONG, TETSUYA TAKETSUGU, SIMON WEBB,
     PENG XU, SOOHAENG YOO, FEDERICO ZAHARIEV

  ADDITIONAL CODE HAS BEEN PROVIDED BY COLLABORATORS IN OTHER GROUPS:
     IOWA STATE UNIVERSITY:
          JOE IVANIC, AARON WEST, LAIMUTIS BYTAUTAS, KLAUS RUEDENBERG
     UNIVERSITY OF TOKYO: KIMIHIKO HIRAO, TAKAHITO NAKAJIMA,
          TAKAO TSUNEDA, MUNEAKI KAMIYA, SUSUMU YANAGISAWA,
          KIYOSHI YAGI, MAHITO CHIBA, SEIKEN TOKURA, NAOAKI KAWAKAMI
     UNIVERSITY OF AARHUS: FRANK JENSEN
     UNIVERSITY OF IOWA: VISVALDAS KAIRYS, HUI LI
     NATIONAL INST. OF STANDARDS AND TECHNOLOGY: WALT STEVENS, DAVID GARMER
     UNIVERSITY OF PISA: BENEDETTA MENNUCCI, JACOPO TOMASI
     UNIVERSITY OF MEMPHIS: HENRY KURTZ, PRAKASHAN KORAMBATH
     UNIVERSITY OF ALBERTA: TOBY ZENG, MARIUSZ KLOBUKOWSKI
     UNIVERSITY OF NEW ENGLAND: MARK SPACKMAN
     MIE UNIVERSITY: HIROAKI UMEDA
     NAT. INST. OF ADVANCED INDUSTRIAL SCIENCE AND TECHNOLOGY: KAZUO KITAURA
     MICHIGAN STATE UNIVERSITY:
          KAROL KOWALSKI, MARTA WLOCH, JEFFREY GOUR, JESSE LUTZ,
          WEI LI, JUN SHEN, J. EMILIANO DEUSTUA, PIOTR PIECUCH
     UNIVERSITY OF MINNESOTA:
          YINAN SHU
     UNIVERSITY OF SILESIA: MONIKA MUSIAL, STANISLAW KUCHARSKI
     FACULTES UNIVERSITAIRES NOTRE-DAME DE LA PAIX:
          OLIVIER QUINET, BENOIT CHAMPAGNE
     UNIVERSITY OF CALIFORNIA - SANTA BARBARA: BERNARD KIRTMAN
     INSTITUTE FOR MOLECULAR SCIENCE:
          KAZUYA ISHIMURA, MICHIO KATOUDA, AND SHIGERU NAGASE
     UNIVERSITY OF NOTRE DAME: ANNA POMOGAEVA, DAN CHIPMAN
     KYUSHU UNIVERSITY:
          HARUYUKI NAKANO,
          FENG LONG GU, JACEK KORCHOWIEC, MARCIN MAKOWSKI, AND YURIKO AOKI,
          HIROTOSHI MORI AND EISAKU MIYOSHI
     PENNSYLVANIA STATE UNIVERSITY:
          TZVETELIN IORDANOV, CHET SWALINA, JONATHAN SKONE,
          SHARON HAMMES-SCHIFFER
     WASEDA UNIVERSITY:
          MASATO KOBAYASHI, TOMOKO AKAMA, TSUGUKI TOUMA,
          TAKESHI YOSHIKAWA, YASUHIRO IKABATA, JUNJI SEINO,
          YUYA NAKAJIMA, HIROMI NAKAI
     NANJING UNIVERSITY: SHUHUA LI
     UNIVERSITY OF NEBRASKA:
          PEIFENG SU, DEJUN SI, NANDUN THELLAMUREGE, YALI WANG, HUI LI
     UNIVERSITY OF ZURICH: ROBERTO PEVERATI, KIM BALDRIDGE
     N. COPERNICUS UNIVERSITY AND JACKSON STATE UNIVERSITY:
          MARIA BARYSZ
     UNIVERSITY OF COPENHAGEN: Jimmy Kromann, CASPER STEINMANN
     TOKYO INSTITUTE OF TECHNOLOGY: HIROYA NAKATA
     NAGOYA UNIVERSITY: YOSHIO NISHIMOTO, STEPHAN IRLE
     MOSCOW STATE UNIVERSITY: VLADIMIR MIRONOV

 EXECUTION OF GAMESS BEGUN Wed Nov 16 19:01:02 2022

            ECHO OF THE FIRST FEW INPUT CARDS -
 INPUT CARD> $system kdiag=3 mwords=100 memddi=1000 parall=.t. $end                         
 INPUT CARD> $contrl runtyp=energy ispher=1 $end                                            
 INPUT CARD> $contrl icut=9 itol=20 inttyp=rysquad qmttol=1.0d-05 nosym=1 $end              
 INPUT CARD> $scf    npunch=2 conv=1.0d-06 dirscf=.t.      $end                             
 INPUT CARD> $contrl scftyp=mcscf  mult=2 maxit=200 icharg=1 mplevl=2 $end                  
 INPUT CARD> $guess  guess=moread norb=29 purify=.t. $end                                   
 INPUT CARD> $basis  gbasis=ccd $end                                                        
 INPUT CARD> $mcscf  cistep=gmcci fullnr=.t. finci=mos                                      
 INPUT CARD>         acurcy=1.d-6 maxit=100 $end                                            
 INPUT CARD> $trans  dirtrf=.t. $end                                                        
 INPUT CARD> $mrmp   mrpt=gmcpt rdvecs=.f. $end                                             
 INPUT CARD> $gmcpt  nmofzc=0 nmodoc=1 nmoact=7 nelact=7 stsym(1)=A                         
 INPUT CARD>         reftyp=ormas nspace=1 mstart(1)=2 mine(1)=7 maxe(1)=7                  
 INPUT CARD>         kstate(1)=1,1,1                                                        
 INPUT CARD>         wstate(1)=1,1,1                                                        
 INPUT CARD>         iwgt=0 thrwgt=-1.0 krot=.f. kszdoe=.f. knospn=.f.                      
 INPUT CARD>         thrde=-1.0 edshft=0.02 $end                                            
 INPUT CARD> $data                                                                          
 INPUT CARD> NH3+ 3 states calculation at NH3 structure.                                    
 INPUT CARD> c1                                                                             
 INPUT CARD>N 7.0 -0.006228917999999998 0.018686709000000003 -0.1693807382                  
 INPUT CARD>H 1.0 -0.529051476 0.8238167948 0.1746795771                                    
 INPUT CARD>H 1.0 -0.299775527 -0.8645477038 0.3118440001                                   
 INPUT CARD>H 1.0 0.915379498 -0.21892723000000003 0.28285793410000004                      
 INPUT CARD>$end                                                                            
 INPUT CARD>--- OPTIMIZED RHF      MO-S --- GENERATED AT Mon Nov 14 16:47:08 2022           
 INPUT CARD>E=      -56.3825050291, E(NUC)=   11.8429239490                                 
 INPUT CARD> $VEC                                                                           
 INPUT CARD> 1  1-1.00134066E+00-2.25158504E-03 3.44925845E-03 0.00000000E+00 0.00000000E+00
 INPUT CARD> 1  2-2.13170927E-03 0.00000000E+00 0.00000000E+00 6.57129898E-04-6.87950443E-05
 INPUT CARD> 1  3-6.87950443E-05 1.37590089E-04 0.00000000E+00 0.00000000E+00 0.00000000E+00
 INPUT CARD> 1  4 3.25502815E-04-4.84772356E-04 3.62525460E-04-6.27912517E-04-3.45956485E-04
 INPUT CARD> 1  5 3.25502815E-04-4.84772356E-04 3.62525460E-04 6.27912517E-04-3.45956485E-04
 INPUT CARD> 1  6 3.25502815E-04-4.84772356E-04-7.25050921E-04 0.00000000E+00-3.45956485E-04
 INPUT CARD> 2  1 1.31286642E-02-4.05911371E-01-2.82090992E-01 0.00000000E+00 0.00000000E+00
 INPUT CARD> 2  2-7.71489043E-02 0.00000000E+00 0.00000000E+00 9.73717494E-03 6.62450916E-04
 INPUT CARD> 2  3 6.62450916E-04-1.32490183E-03 0.00000000E+00 0.00000000E+00 0.00000000E+00
 INPUT CARD> 2  4-1.96090317E-01-1.96656153E-02-1.74855877E-02 3.02859263E-02 8.68214399E-03
 INPUT CARD> 2  5-1.96090317E-01-1.96656153E-02-1.74855877E-02-3.02859263E-02 8.68214399E-03
 INPUT CARD> 2  6-1.96090317E-01-1.96656153E-02 3.49711754E-02 0.00000000E+00 8.68214399E-03
 INPUT CARD> 3  1 0.00000000E+00 0.00000000E+00 0.00000000E+00 4.48608762E-01 0.00000000E+00
 INPUT CARD> 3  2 0.00000000E+00 2.18692520E-01 0.00000000E+00 0.00000000E+00 1.30198027E-02
 INPUT CARD> 3  3-1.30198027E-02 0.00000000E+00 0.00000000E+00 2.71832968E-02 0.00000000E+00
 INPUT CARD> 3  4-1.85332726E-01-7.03958951E-02 8.47929477E-03 1.95242443E-02 8.32835058E-03
 INPUT CARD> 3  5-1.85332726E-01-7.03958951E-02 8.47929477E-03-1.95242443E-02 8.32835058E-03
 INPUT CARD> 3  6 3.70665453E-01 1.40791790E-01-2.53376884E-02 0.00000000E+00-1.66567012E-02
 INPUT CARD> 4  1 0.00000000E+00 0.00000000E+00 0.00000000E+00 0.00000000E+00 4.48608762E-01
 INPUT CARD> 4  2 0.00000000E+00 0.00000000E+00 2.18692520E-01 0.00000000E+00 0.00000000E+00
 INPUT CARD> 4  3 0.00000000E+00 0.00000000E+00-1.50339731E-02 0.00000000E+00 2.71832968E-02
 INPUT CARD> 4  4 3.21005698E-01 1.21929267E-01 1.95242443E-02-1.40653607E-02-1.44251263E-02
  100000000 WORDS OF MEMORY AVAILABLE

     BASIS OPTIONS
     -------------
     GBASIS=CCD          IGAUSS=       0      POLAR=NONE    
     NDFUNC=       0     NFFUNC=       0     DIFFSP=       F
     NPFUNC=       0      DIFFS=       F     BASNAM=        


     RUN TITLE
     ---------
  NH3+ 3 states calculation at NH3 structure.                                    

 THE POINT GROUP OF THE MOLECULE IS C1      
 THE ORDER OF THE PRINCIPAL AXIS IS     0

 ATOM      ATOMIC                      COORDINATES (BOHR)
           CHARGE         X                   Y                   Z
 N           7.0    -0.0117709482        0.0353127596       -0.3200831828
 H           1.0    -0.9997623230        1.5567880063        0.3300965364
 H           1.0    -0.5664936039       -1.6337582635        0.5892997111
 H           1.0     1.7298164260       -0.4137124760        0.5345239889

          INTERNUCLEAR DISTANCES (ANGS.)
          ------------------------------

                1 N          2 H          3 H          4 H     

   1 N       0.0000000    1.0197820 *  1.0477833 *  1.0537278 *
   2 H       1.0197820 *  0.0000000    1.7093730 *  1.7847685 *
   3 H       1.0477833 *  1.7093730 *  0.0000000    1.3763240 *
   4 H       1.0537278 *  1.7847685 *  1.3763240 *  0.0000000  

  * ... LESS THAN  3.000


     ATOMIC BASIS SET
     ----------------
 THE CONTRACTED PRIMITIVE FUNCTIONS HAVE BEEN UNNORMALIZED
 THE CONTRACTED BASIS FUNCTIONS ARE NOW NORMALIZED TO UNITY

  SHELL TYPE  PRIMITIVE        EXPONENT          CONTRACTION COEFFICIENT(S)

 N         

      1   S       1          9046.0000000    0.000699617413
      1   S       2          1357.0000000    0.005386054630
      1   S       3           309.3000000    0.027391021189
      1   S       4            87.7300000    0.103150591982
      1   S       5            28.5600000    0.278570663317
      1   S       6            10.2100000    0.448294849454
      1   S       7             3.8380000    0.278085928395
      1   S       8             0.7466000    0.015431561233

      2   S       9          9046.0000000   -0.000304990096
      2   S      10          1357.0000000   -0.002408026379
      2   S      11           309.3000000   -0.011944448725
      2   S      12            87.7300000   -0.048925992909
      2   S      13            28.5600000   -0.134472724725
      2   S      14            10.2100000   -0.315112577700
      2   S      15             3.8380000   -0.242857832550
      2   S      16             0.7466000    1.094382206854

      3   S      17             0.2248000    1.000000000000

      4   P      18            13.5500000    0.058905676772
      4   P      19             2.9170000    0.320461106714
      4   P      20             0.7973000    0.753042061792

      5   P      21             0.2185000    1.000000000000

      6   D      22             0.8170000    1.000000000000

 H         

      7   S      23            13.0100000    0.033498726390
      7   S      24             1.9620000    0.234800801174
      7   S      25             0.4446000    0.813682957883

      8   S      26             0.1220000    1.000000000000

      9   P      27             0.7270000    1.000000000000

 H         

     10   S      28            13.0100000    0.033498726390
     10   S      29             1.9620000    0.234800801174
     10   S      30             0.4446000    0.813682957883

     11   S      31             0.1220000    1.000000000000

     12   P      32             0.7270000    1.000000000000

 H         

     13   S      33            13.0100000    0.033498726390
     13   S      34             1.9620000    0.234800801174
     13   S      35             0.4446000    0.813682957883

     14   S      36             0.1220000    1.000000000000

     15   P      37             0.7270000    1.000000000000

 TOTAL NUMBER OF BASIS SET SHELLS             =   15
 NUMBER OF CARTESIAN GAUSSIAN BASIS FUNCTIONS =   30
 NOTE: THIS RUN WILL RESTRICT THE MO VARIATION SPACE TO SPHERICAL HARMONICS.
 THE NUMBER OF ORBITALS KEPT IN THE VARIATIONAL SPACE WILL BE PRINTED LATER.
 NUMBER OF ELECTRONS                          =    9
 CHARGE OF MOLECULE                           =    1
 SPIN MULTIPLICITY                            =    2
 NUMBER OF OCCUPIED ORBITALS (ALPHA)          =    5
 NUMBER OF OCCUPIED ORBITALS (BETA )          =    4
 TOTAL NUMBER OF ATOMS                        =    4
 THE NUCLEAR REPULSION ENERGY IS       11.6736205295

     $CONTRL OPTIONS
     ---------------
 SCFTYP=MCSCF        RUNTYP=ENERGY       EXETYP=RUN     
 MPLEVL=       2     CITYP =NONE         CCTYP =NONE         VBTYP =NONE    
 DFTTYP=NONE         TDDFT =NONE    
 MULT  =       2     ICHARG=       1     NZVAR =       0     COORD =UNIQUE  
 PP    =NONE         RELWFN=NONE         LOCAL =NONE         NUMGRD=       F
 ISPHER=       1     NOSYM =       1     MAXIT =     200     UNITS =ANGS    
 PLTORB=       F     MOLPLT=       F     AIMPAC=       F     FRIEND=        
 NPRINT=       7     IREST =       0     GEOM  =INPUT   
 NORMF =       0     NORMP =       0     ITOL  =      20     ICUT  =       9
 INTTYP=RYSQUAD      GRDTYP=BEST         QMTTOL= 1.0E-05

     $SYSTEM OPTIONS
     ---------------
  REPLICATED MEMORY=   100000000 WORDS (ON EVERY NODE).
 DISTRIBUTED MEMDDI=        1000 MILLION WORDS IN AGGREGATE,
 MEMDDI DISTRIBUTED OVER   1 PROCESSORS IS  1000000000 WORDS/PROCESSOR.
 TOTAL MEMORY REQUESTED ON EACH PROCESSOR=  1100000000 WORDS.
 TIMLIM=      525600.00 MINUTES, OR     365.0 DAYS.
 PARALL= T  BALTYP=  DLB     KDIAG=    3  COREFL= F
 MXSEQ2=     300 MXSEQ3=     150  mem10=         0

          ----------------
          PROPERTIES INPUT
          ----------------

     MOMENTS            FIELD           POTENTIAL          DENSITY
 IEMOM =       1   IEFLD =       0   IEPOT =       0   IEDEN =       0
 WHERE =COMASS     WHERE =NUCLEI     WHERE =NUCLEI     WHERE =NUCLEI  
 OUTPUT=BOTH       OUTPUT=BOTH       OUTPUT=BOTH       OUTPUT=BOTH    
 IEMINT=       0   IEFINT=       0                     IEDINT=       0
                                                       MORB  =       0

     -------------------------------
     INTEGRAL TRANSFORMATION OPTIONS
     -------------------------------
     NWORD  =            0
     CUTOFF = 1.0E-09     MPTRAN =       0
     DIRTRF =       T     AOINTS =DUP     

          ----------------------
          MCSCF INPUT PARAMETERS
          ----------------------
 CONVERGER SELECTION: FOCAS = F  SOSCF = F  FULLNR = T  QUD = F  JACOBI = F
 SECULAR EQUATION METHOD CISTEP = GMCCI   
 --- GENERAL INPUT OPTIONS:
 MAXIT =     100  MICIT =       1  ACURCY= 1.000E-06
 DAMP  =   0.000  CANONC=       T  ENGTOL= 1.000E-10
 EKT   =       F  NPUNCH=       2  NWORD =         0
 REGENERATE CI AFTER CONVERGENCE = NONE    
 DIABATIZATION AFTER CONVERGENCE =        F
 --- INPUT FOR FULLNR CONVERGER:
 METHOD=DM2       FORS  =       F  DROPC =       T
 LINSER=       F  FCORE =       F  NORB  =      30

          ----------------------
          INTEGRAL INPUT OPTIONS
          ----------------------
 NOPK  =       1 NORDER=       0 SCHWRZ=       T

 ------------------------------------------
 MULTIREFERENCE PERTURBATION THEORY CONTROL
 ------------------------------------------
 MRPT=GMCPT    READ CONVERGED MCSCF VECTORS= F


     ------------------------------------------
     THE POINT GROUP IS C1 , NAXIS= 1, ORDER= 1
     ------------------------------------------

 -- VARIATIONAL SPACE WILL BE RESTRICTED TO PURE SPHERICAL HARMONICS ONLY --
 AFTER EXCLUDING CONTAMINANT COMBINATIONS FROM THE CARTESIAN GAUSSIAN BASIS
 SET, THE NUMBER OF SPHERICAL HARMONICS KEPT IN THE VARIATION SPACE IS   29

     DIMENSIONS OF THE SYMMETRY SUBSPACES ARE
 A   =   29

 ..... DONE SETTING UP THE RUN .....
 CPU     0: STEP CPU TIME=     0.03 TOTAL CPU TIME=          0.0 (      0.0 MIN)
 TOTAL WALL CLOCK TIME=          0.0 SECONDS, CPU UTILIZATION IS    75.00%

          ********************
          1 ELECTRON INTEGRALS
          ********************
 TIME TO DO   DIPOLE INTEGRALS=      0.00
 ...... END OF ONE-ELECTRON INTEGRALS ......
 CPU     0: STEP CPU TIME=     0.00 TOTAL CPU TIME=          0.0 (      0.0 MIN)
 TOTAL WALL CLOCK TIME=          0.0 SECONDS, CPU UTILIZATION IS    75.00%

          -------------
          GUESS OPTIONS
          -------------
          GUESS =MOREAD            NORB  =      29          NORDER=       0
          MIX   =       F          PRTMO =       F          PUNMO =       F
          TOLZ  = 1.0E-08          TOLE  = 1.0E-05
          SYMDEN=       F          PURIFY=       T

 INITIAL GUESS ORBITALS GENERATED BY MOREAD   ROUTINE.

 STATISTICS FOR GENERATION OF SYMMETRY ORBITAL -Q- MATRIX
 NUMBER OF CARTESIAN ATOMIC ORBITALS=         30
 NUMBER OF SPHERICAL CONTAMINANTS DROPPED=     1
 NUMBER OF LINEARLY DEPENDENT MOS DROPPED=     0
 TOTAL NUMBER OF MOS IN VARIATION SPACE=      29
 ORBITAL PURIFICATION WILL OCCUR

 SYMMETRIES FOR INITIAL GUESS ORBITALS FOLLOW.   BOTH SET(S).
     5 ORBITALS ARE OCCUPIED (    1 CORE ORBITALS).
     1=A        2=A        3=A        4=A        5=A        6=A        7=A   
     8=A        9=A       10=A       11=A       12=A       13=A       14=A   
    15=A       16=A       17=A       18=A       19=A       20=A       21=A   
    22=A       23=A       24=A       25=A       26=A       27=A       28=A   
    29=A   
 ...... END OF INITIAL ORBITAL SELECTION ......
 CPU     0: STEP CPU TIME=     0.01 TOTAL CPU TIME=          0.0 (      0.0 MIN)
 TOTAL WALL CLOCK TIME=          0.1 SECONDS, CPU UTILIZATION IS    80.00%

                    ----------------------
                    AO INTEGRAL TECHNOLOGY
                    ----------------------
     S,P,L SHELL ROTATED AXIS INTEGRALS, REPROGRAMMED BY
        KAZUYA ISHIMURA (IMS) AND JOSE SIERRA (SYNSTAR).
     S,P,D,L SHELL ROTATED AXIS INTEGRALS PROGRAMMED BY
        KAZUYA ISHIMURA (INSTITUTE FOR MOLECULAR SCIENCE).
     S,P,D,F,G SHELL TO TOTAL QUARTET ANGULAR MOMENTUM SUM 5,
        ERIC PROGRAM BY GRAHAM FLETCHER (ELORET AND NASA ADVANCED
        SUPERCOMPUTING DIVISION, AMES RESEARCH CENTER).
     S,P,D,F,G,L SHELL GENERAL RYS QUADRATURE PROGRAMMED BY
        MICHEL DUPUIS (PACIFIC NORTHWEST NATIONAL LABORATORY).

          --------------------
          2 ELECTRON INTEGRALS
          --------------------

 DIRECT SCF METHOD SKIPS INTEGRAL STORAGE ON DISK.
 DIRECT TRANSFORMATION SKIPS AO INTEGRAL STORAGE ON DISK.
  ...... END OF TWO-ELECTRON INTEGRALS .....
 STEP CPU TIME =     0.03 TOTAL CPU TIME =          0.1 (      0.0 MIN)
 TOTAL WALL CLOCK TIME=          0.1 SECONDS, CPU UTILIZATION IS    87.50%
 DDI: Creating Array [0] - 900 x 36 = 32400 words.
 DDI: Creating Array [1] - 21 x 288 = 6048 words.
 DDI: Creating Array [2] - 36 x 36 = 1296 words.
 DDI: Creating Array [3] - 465 x 36 = 16740 words.

          -----------------
          MCSCF CALCULATION
          -----------------

 ----- NUCLEAR ENERGY ----- =        11.6736205295

     -------------------------------------------------
     GMC-PT/GMC-QDPT or general MCSCF input parameters
     -------------------------------------------------
 # of frozen core orbs. =         0 ->         0
 # of doubly occ. orbs. =         1
 # of active      orbs. =         7
 # of virtual     orbs. =        21
 # of active electrons  =         7
 # of states in CI      =         3
 Highest state in CI    =         3
 kstate =  1 1 1
 avecoe =  0.333 0.333 0.333
 State symmetry           = A           
 Assigned symmetry number = 1

 <<<Act. MO sym.: 1111111

 <<<Division of 1-ext.:  0
 <<<Division of 2-ext.:  0

 *** Reference space

 Reference type: ORMAS (= Occupation restricted multiple active space)
 # of orbitals          =  7
 # of minimum electrons =  7
 # of maximum electrons =  7
 State symmetry    =    1 (input)
 2*Sz              =    1 (input)
 Spin multiplicity =    2 (input)
 Dimension of reference space =      1225  (from      3432 walks)

 Dimension of reference space =      1225  (from      1225 walks)

 <<<Ionized spaces for Ref-CI:
      0:         1225 /   -1-0:         1960 /  0-1-0:         2891

 EVALUATING EXCHANGE INTEGRALS FOR DIRECT INTEGRAL TRANSFORMATION
 SCHWARZ INEQUALITY OVERHEAD:       465 INTEGRALS, T=        0.00

     --------------------------------------------
     PARTIAL TWO ELECTRON INTEGRAL TRANSFORMATION
     --------------------------------------------

 NUMBER OF CORE MOLECULAR ORBITALS     =    1
 NUMBER OF OCCUPIED MOLECULAR ORBITALS =    8
 TOTAL NUMBER OF MOLECULAR ORBITALS    =   29
 TOTAL NUMBER OF ATOMIC ORBITALS       =   30
 THRESHOLD FOR KEEPING TRANSFORMED 2E- INTEGRALS = 1.000E-09

 -------------------------------     ------------------------------
 DISTRIBUTED DATA TRANSFORMATION     PROGRAM WRITTEN BY G. FLETCHER
 -------------------------------     ------------------------------

 THE DISTRIBUTED MEMORY REQUIRED FOR THIS STEP IS MEMDDI=         1 MWORDS
 CREATING DISTRIBUTED STORAGE FOR [VIR OCC|VIR OCC] INTEGRALS
 CREATING DISTRIBUTED STORAGE FOR [VIR OCC|OCC OCC] INTEGRALS
 CREATING DISTRIBUTED STORAGE FOR [OCC OCC|OCC OCC] INTEGRALS
 CREATING DISTRIBUTED STORAGE FOR [VIR VIR|OCC OCC] INTEGRALS
 FOR    1 PROCESSORS, THE REPLICATED MEMORY NEEDED IS       73700 WORDS.
 SCHWARZ INEQUALITY OVERHEAD:       465 INTEGRALS, T=        0.00

      DIRECT 4-INDEX TRANSFORMATION 
      SCHWARZ INEQUALITY TEST SKIPPED          0 INTEGRAL BLOCKS
 ----- FROZEN CORE ENERGY =       -47.7844162137
 ... END OF INTEGRAL TRANSFORMATION ...
 CPU     0: STEP CPU TIME=     0.21 TOTAL CPU TIME=          0.3 (      0.0 MIN)
 TOTAL WALL CLOCK TIME=          0.3 SECONDS, CPU UTILIZATION IS    93.33%

     --------------------------------     -----------------------------
     MCHF NEWTON-RAPHSON OPTIMIZATION     CODE WRITTEN BY MICHEL DUPUIS
     --------------------------------     -----------------------------
     PARALLEL VERSION WRITTEN BY G. FLETCHER (ELORET)
     NASA ADVANCED SUPERCOMPUTING DIVISION, AMES RESEARCH CENTER

 NUMBER OF INDEPENDENT ORBITAL ROTATION PARAMETERS =   175
 ..... DONE SOLVING NEWTON-RAPHSON EQUATIONS .....
 CPU     0: STEP CPU TIME=     0.94 TOTAL CPU TIME=          1.2 (      0.0 MIN)
 TOTAL WALL CLOCK TIME=          1.2 SECONDS, CPU UTILIZATION IS   100.00%
 ..... DONE WITH NTN-RPH ORBITAL ROTATIONS ..... 
 CPU     0: STEP CPU TIME=     0.00 TOTAL CPU TIME=          1.2 (      0.0 MIN)
 TOTAL WALL CLOCK TIME=          1.2 SECONDS, CPU UTILIZATION IS   100.00%
 MAXIMUM MEMORY USED BY NTN-RPH CODE WAS     57645 WORDS.

 ITER     TOTAL ENERGY      DEL(E)  LAGRANGIAN ASYMMETRY   SQCDF  MICIT   DAMP
   1      -55.669961529 -0.669961529  0.127597   12    5 1.646E-01  1   0.0000
   2      -55.707958936 -0.037997406  0.024277   12    5 4.494E-01  1   0.0000
   3      -55.740315616 -0.032356680  0.012241   12    5 2.132E-01  1   0.0257
   4      -55.753753844 -0.013438228  0.004096   11    6 3.796E-02  1   0.0044
   5      -55.755387895 -0.001634050  0.000752   12    5 1.153E-03  1   0.0000
   6      -55.755437761 -0.000049866  0.000253   12    5 1.002E-04  1   0.0000
   7      -55.755442889 -0.000005128  0.000115   12    5 1.438E-05  1   0.0000
   8      -55.755443663 -0.000000773  0.000051   12    5 2.262E-06  1   0.0000
   9      -55.755443786 -0.000000124  0.000021   12    5 3.759E-07  1   0.0000
  10      -55.755443807 -0.000000021  0.000009   12    5 6.769E-08  1   0.0000
  11      -55.755443811 -0.000000004  0.000003   12    5 1.385E-08  1   0.0000
  12      -55.755443812 -0.000000001  0.000002   23    5 3.358E-09  1   0.0000
  13      -55.755443812 -0.000000000  0.000001   12    8 9.590E-10  1   0.0000

          --------------------
          LAGRANGIAN CONVERGED
          --------------------

 FINAL MCSCF ENERGY IS      -55.7554438120 AFTER  13 ITERATIONS

 -MCCI- BASED ON OPTIMIZED ORBITALS
 ----------------------------------

 PLEASE NOTE: IF THE ACTIVE ORBITALS ARE CANONICALIZED BELOW,
 THE FOLLOWING CI EXPANSION COEFFICIENTS AND THE DENSITY DO NOT
 CORRESPOND TO THE PRINTED ORBITALS.  THE PRINTED EXPANSIONS MATCH
 THE ORBITALS USED DURING THE LAST ITERATION.  IF YOU WISH TO SEE
 CI EXPANSIONS BASED ON THE CANONICAL (OR NATURAL) ORBITALS, YOU
 MUST RUN A CI CALCULATION WITH THAT ORBITAL CHOICE READ IN $VEC.

 Averaged energy =     -55.755443812

 State #    1  Energy =     -55.896627994  S =  0.500

      Det      Coef    Occupancy (Ignoring core)
      ---      ----    --------- --------- -----
        1   -0.950826  11110001110000
        2   -0.052814  11101001110000
        5    0.061185  01111001110000
        8    0.125171  10110101110000
       17    0.129737  11010011110000
       36    0.076665  11110001101000
      386   -0.097188  11110001010010
      393   -0.061831  10110101010010
      701   -0.102896  11110001100001
      717   -0.057379  11010011100001

 State #    2  Energy =     -55.737555081  S =  0.500

      Det      Coef    Occupancy (Ignoring core)
      ---      ----    --------- --------- -----
       36   -0.572671  11110001101000
       43    0.052381  10110101101000
       71    0.781515  11110001011000
       78   -0.056037  10110101011000
       87   -0.076089  11010011011000
      456   -0.062746  11110001001010
      806   -0.081859  11110001001001

 State #    3  Energy =     -55.632148361  S =  0.500

      Det      Coef    Occupancy (Ignoring core)
      ---      ----    --------- --------- -----
        1   -0.066803  11110001110000
       36   -0.779064  11110001101000
       43    0.065642  10110101101000
       52    0.050083  11010011101000
       71   -0.574528  11110001011000
       87    0.051762  11010011011000
      281   -0.053891  11110000101100
      456   -0.070178  11110001001010
      463   -0.054060  10110101001010
      806    0.055728  11110001001001

 DENSITY MATRIX OVER ACTIVE MO-S

             1           2           3           4           5

    1    1.9791511
    2    0.0010510   1.6364712
    3   -0.0064818   0.0001001   1.6365324
    4    0.0033718  -0.0002035  -0.0003972   1.6557322
    5    0.0955463   0.0000158   0.0065883   0.0379112   0.0246101
    6   -0.0038412  -0.1352921   0.0184922   0.0019670  -0.0006024
    7   -0.0053014  -0.0105626   0.1445652   0.0112625   0.0006164

             6           7

    6    0.0335601
    7   -0.0002753   0.0339430

 FORMING THE "STANDARD FOCK OPERATOR" IN DIRECT AO INTEGRAL MODE...
 ONLY THE    1 CORE AND   21 VIRTUAL ORBITALS WILL BE CANONICALIZED

          ----------------------
          MCSCF NATURAL ORBITALS
          ----------------------

                      1          2          3          4          5
                  -15.9872     1.9840     1.6568     1.6510     1.6462
                     A          A          A          A          A   
    1  N  1  S    1.001316   0.008313  -0.011085   0.001689   0.000516
    2  N  1  S   -0.001763   0.438286  -0.175886   0.064603   0.012945
    3  N  1  S   -0.006365   0.289830  -0.278321   0.088929   0.019290
    4  N  1  X   -0.000052   0.004196  -0.049325  -0.258593   0.438075
    5  N  1  Y    0.000074  -0.019033   0.104298   0.398488   0.282493
    6  N  1  Z    0.001168   0.096422   0.585385  -0.099525  -0.006890
    7  N  1  X    0.000002   0.000106  -0.022860  -0.091467   0.214811
    8  N  1  Y   -0.000030   0.002029   0.059032   0.142007   0.139506
    9  N  1  Z   -0.000457   0.006918   0.379744  -0.049839   0.000842
   10  N  1 XX    0.000004  -0.001177  -0.012369  -0.000638   0.009733
   11  N  1 YY    0.000194   0.000161  -0.011574   0.005313  -0.009378
   12  N  1 ZZ   -0.000197   0.001016   0.023943  -0.004675  -0.000355
   13  N  1 XY   -0.000298  -0.001530  -0.001297  -0.007245  -0.008155
   14  N  1 XZ    0.000014   0.000698  -0.002058  -0.012737   0.021390
   15  N  1 YZ   -0.000078  -0.001424   0.003145   0.020372   0.014058
   16  H  2  S   -0.002126   0.182910   0.166981   0.351831   0.010951
   17  H  2  S    0.000604   0.000489   0.030685   0.038127   0.003072
   18  H  2  X   -0.000585   0.019730   0.011414   0.017210   0.016681
   19  H  2  Y    0.000937  -0.031678  -0.017563  -0.027081   0.010473
   20  H  2  Z    0.000414  -0.005158   0.016230  -0.019193  -0.000784
   21  H  3  S   -0.001949   0.198987   0.074936  -0.206942  -0.324351
   22  H  3  S    0.000377   0.004904   0.020811  -0.025533  -0.064906
   23  H  3  X   -0.000339   0.011380   0.005000  -0.023720   0.001049
   24  H  3  Y   -0.000882   0.033575   0.015052  -0.010134  -0.028380
   25  H  3  Z    0.000472  -0.011675   0.020611   0.006891   0.016926
   26  H  4  S   -0.001931   0.192035   0.073485  -0.240069   0.298300
   27  H  4  S    0.000415   0.002949   0.021986  -0.029846   0.060300
   28  H  4  X    0.000940  -0.034264  -0.014141   0.025137  -0.021750
   29  H  4  Y   -0.000178   0.008069   0.003642   0.011448   0.018122
   30  H  4  Z    0.000459  -0.009979   0.020805   0.008134  -0.015066

                      6          7          8
                    0.0243     0.0192     0.0184
                     A          A          A   
    1  N  1  S    0.027485   0.201825  -0.162987
    2  N  1  S    0.085715   0.659040  -0.495432
    3  N  1  S   -0.002582   0.169221  -0.024339
    4  N  1  X    0.706182   0.224675   0.500807
    5  N  1  Y    0.489018  -0.450290  -0.635742
    6  N  1  Z    0.033919   0.610230  -0.294858
    7  N  1  X    0.006260   0.030962   0.037139
    8  N  1  Y    0.004449  -0.066700  -0.043679
    9  N  1  Z   -0.007887  -0.075747   0.056379
   10  N  1 XX   -0.018906   0.020922   0.006058
   11  N  1 YY    0.018489  -0.012322  -0.004549
   12  N  1 ZZ    0.000418  -0.008599  -0.001509
   13  N  1 XY    0.021118   0.033936  -0.000768
   14  N  1 XZ   -0.023290  -0.020226  -0.024284
   15  N  1 YZ   -0.014320   0.043270   0.025403
   16  H  2  S   -0.104228  -0.106761   0.897848
   17  H  2  S   -0.015596   0.016501   0.140771
   18  H  2  X   -0.017777  -0.015922   0.049439
   19  H  2  Y    0.000956   0.026827  -0.081294
   20  H  2  Z    0.001277  -0.004793   0.010564
   21  H  3  S    0.614601  -0.621438   0.006907
   22  H  3  S    0.139253  -0.084513  -0.014869
   23  H  3  X    0.005647  -0.049567  -0.015643
   24  H  3  Y    0.047692  -0.062385   0.024992
   25  H  3  Z   -0.013903  -0.012386  -0.000177
   26  H  4  S   -0.629518  -0.584772  -0.138826
   27  H  4  S   -0.135080  -0.077545  -0.047448
   28  H  4  X    0.050850   0.077018   0.000227
   29  H  4  Y   -0.025522   0.007958   0.017852
   30  H  4  Z    0.011145  -0.016191   0.000029

          ------------------------
          MCSCF OPTIMIZED ORBITALS
          ------------------------

                      1          2          3          4          5
                  -15.9872     0.0000     0.0000     0.0000     0.0000
                     A          A          A          A          A   
    1  N  1  S    1.001316  -0.003816   0.002891  -0.005399  -0.017302
    2  N  1  S   -0.001763   0.401989  -0.002278   0.009720  -0.197390
    3  N  1  S   -0.006365   0.287132  -0.010744   0.039110  -0.288458
    4  N  1  X   -0.000052   0.000287   0.433391   0.045610  -0.008321
    5  N  1  Y    0.000074  -0.004296   0.009147   0.414734   0.023453
    6  N  1  Z    0.001168   0.053313  -0.001916   0.002559   0.579687
    7  N  1  X    0.000002  -0.000454   0.225867   0.050101  -0.009223
    8  N  1  Y   -0.000030   0.007434   0.031483   0.196960   0.031690
    9  N  1  Z   -0.000457   0.005348  -0.006106   0.019115   0.384738
   10  N  1 XX    0.000004  -0.001681   0.009758   0.005288  -0.012369
   11  N  1 YY    0.000194   0.000736  -0.010210  -0.004501  -0.012153
   12  N  1 ZZ   -0.000197   0.000945   0.000452  -0.000787   0.024522
   13  N  1 XY   -0.000298  -0.003328  -0.004442  -0.010499  -0.000623
   14  N  1 XZ    0.000014   0.001125   0.027993   0.000527   0.000024
   15  N  1 YZ   -0.000078  -0.002274  -0.001827   0.028786  -0.000964
   16  H  2  S   -0.002126   0.211028  -0.243464   0.371042   0.121855
   17  H  2  S    0.000604   0.003057  -0.028738   0.047698   0.025497
   18  H  2  X   -0.000585   0.021808   0.001719   0.028297   0.009448
   19  H  2  Y    0.000937  -0.034704   0.028967  -0.022259  -0.014920
   20  H  2  Z    0.000414  -0.005358   0.008218  -0.012768   0.019520
   21  H  3  S   -0.001949   0.216053  -0.176697  -0.394966   0.125197
   22  H  3  S    0.000377   0.006480  -0.046049  -0.065253   0.026400
   23  H  3  X   -0.000339   0.012665   0.015492  -0.020906   0.009832
   24  H  3  Y   -0.000882   0.035965  -0.021418  -0.025567   0.018724
   25  H  3  Z    0.000472  -0.011051   0.009117   0.018768   0.018939
   26  H  4  S   -0.001931   0.213588   0.432050  -0.013450   0.124728
   27  H  4  S    0.000415   0.005502   0.076547   0.014485   0.027407
   28  H  4  X    0.000940  -0.037266  -0.035671   0.006466  -0.020174
   29  H  4  Y   -0.000178   0.008497   0.008413   0.022650   0.001737
   30  H  4  Z    0.000459  -0.009513  -0.019114   0.000076   0.019302

                      6          7          8          9         10
                    0.0000     0.0000     0.0000     0.1489     0.1970
                     A          A          A          A          A   
    1  N  1  S    0.255789  -0.025236   0.042808  -0.150585  -0.006794
    2  N  1  S    0.834799  -0.064297   0.113247  -0.232358  -0.016632
    3  N  1  S    0.167955   0.024098  -0.053776   1.508697  -0.015672
    4  N  1  X    0.019864   0.932993   0.019044  -0.004395  -0.065053
    5  N  1  Y   -0.059349  -0.105458   0.953207   0.022805   0.086515
    6  N  1  Z    0.694800  -0.000124  -0.027606  -0.220150  -0.026565
    7  N  1  X    0.010428   0.052502  -0.030548   0.041028   0.387450
    8  N  1  Y   -0.036137  -0.037881   0.076866  -0.116341  -0.623968
    9  N  1  Z   -0.084581   0.007494  -0.007176   0.509365   0.075307
   10  N  1 XX    0.013787  -0.005326  -0.024164   0.005558   0.017584
   11  N  1 YY   -0.007548   0.007943   0.019280   0.040731  -0.029586
   12  N  1 ZZ   -0.006239  -0.002616   0.004884  -0.046289   0.012002
   13  N  1 XY    0.031741   0.023902  -0.001010  -0.053096   0.062005
   14  N  1 XZ   -0.008272  -0.034899   0.009708   0.010845   0.056146
   15  N  1 YZ    0.025156   0.013735  -0.041082  -0.034838  -0.094765
   16  H  2  S   -0.507422   0.395701  -0.585876   0.317581  -0.532134
   17  H  2  S   -0.051536   0.071488  -0.105877  -0.855147   1.878993
   18  H  2  X   -0.037157   0.011200  -0.035115  -0.058967   0.056850
   19  H  2  Y    0.059611  -0.037853   0.041670   0.094550  -0.084206
   20  H  2  Z   -0.008931   0.006835  -0.005332  -0.005136  -0.079549
   21  H  3  S   -0.491192   0.321846   0.602312   0.231403   0.253623
   22  H  3  S   -0.055965   0.076010   0.126687  -0.801788  -0.945972
   23  H  3  X   -0.035214  -0.015206   0.032348   0.007761  -0.034816
   24  H  3  Y   -0.060876   0.035229   0.036736  -0.103227  -0.031054
   25  H  3  Z   -0.011962  -0.013395  -0.001773   0.044023   0.059647
   26  H  4  S   -0.487427  -0.675478  -0.067354   0.270199   0.216565
   27  H  4  S   -0.055927  -0.145361  -0.020532  -0.868597  -0.844600
   28  H  4  X    0.069596   0.055153   0.001044   0.083597   0.044498
   29  H  4  Y   -0.002788  -0.006985  -0.029252  -0.060392   0.010405
   30  H  4  Z   -0.013435   0.003131   0.013901   0.037248   0.063848

                     11         12         13         14         15
                    0.2082     0.5467     0.5603     0.6303     0.8130
                     A          A          A          A          A   
    1  N  1  S    0.007699  -0.046106   0.014936  -0.073696  -0.282233
    2  N  1  S    0.014629  -0.014308  -0.029153  -0.272355  -0.639260
    3  N  1  S   -0.055851   0.559015  -0.342144  -0.115272   1.213750
    4  N  1  X   -0.021546  -0.160929  -0.534575   0.165016  -0.048511
    5  N  1  Y    0.004249  -0.456093  -0.086136  -0.267132   0.063455
    6  N  1  Z    0.011835  -0.417231   0.276753   0.472994   0.206432
    7  N  1  X    0.434653   0.293021   1.609314  -0.795793   0.257981
    8  N  1  Y    0.195930   1.383507   0.106714   1.333275  -0.338124
    9  N  1  Z   -0.032822   0.633903  -0.456271  -0.870614   0.005916
   10  N  1 XX    0.072661   0.005453  -0.007777   0.020500   0.099915
   11  N  1 YY   -0.072178  -0.029718   0.028023   0.022812  -0.042430
   12  N  1 ZZ   -0.000483   0.024266  -0.020246  -0.043312  -0.057485
   13  N  1 XY   -0.049263   0.019874  -0.025820  -0.014497   0.104615
   14  N  1 XZ    0.068669   0.006768   0.023956   0.018824  -0.061334
   15  N  1 YZ    0.035433   0.030151   0.000023  -0.037777   0.072114
   16  H  2  S   -0.000025  -0.654651   0.490054  -0.206182   0.018327
   17  H  2  S    0.041169  -0.582613   0.339995  -0.746920  -0.109979
   18  H  2  X   -0.036884  -0.025329   0.101852  -0.102035  -0.015772
   19  H  2  Y   -0.033883   0.093148  -0.008248   0.142923  -0.067838
   20  H  2  Z   -0.006068   0.073282  -0.042020  -0.093892   0.245417
   21  H  3  S   -0.542798   0.146756   0.439463   0.679386  -0.031760
   22  H  3  S    1.810191   0.745584   0.627122   0.249253  -0.262433
   23  H  3  X    0.023265  -0.063942   0.077706   0.055712  -0.475965
   24  H  3  Y    0.075419   0.127670   0.034486   0.075276  -0.052995
   25  H  3  Z   -0.039371  -0.030155  -0.087154   0.001257  -0.097369
   26  H  4  S    0.545809  -0.300120  -0.320784   0.697238  -0.061180
   27  H  4  S   -1.800658  -0.326095  -0.901071   0.233323  -0.316168
   28  H  4  X    0.072542   0.039868   0.091359  -0.101986   0.328606
   29  H  4  Y   -0.016216   0.079621  -0.124460   0.009095   0.338754
   30  H  4  Z    0.038296   0.073376   0.043146   0.010339  -0.147213

                     16         17         18         19         20
                    0.9657     1.0189     1.3415     1.4266     1.5165
                     A          A          A          A          A   
    1  N  1  S   -0.502834   0.056240  -0.025926  -0.319314  -0.528176
    2  N  1  S   -1.066172   0.118525  -0.053735  -0.666114  -1.082078
    3  N  1  S    2.146057  -0.292462   0.094917   1.179371   2.104963
    4  N  1  X   -0.020355  -0.064208   0.141296   0.032225  -0.050922
    5  N  1  Y    0.054183  -0.037309   0.003780  -0.071278   0.048602
    6  N  1  Z    0.154395  -0.019027  -0.004849  -0.024018  -0.020758
    7  N  1  X    0.079958   0.365807  -0.484964  -0.428997   0.282114
    8  N  1  Y   -0.233480   0.216181   0.127725   0.865982  -0.644550
    9  N  1  Z   -0.078030  -0.084547   0.020171   0.428275   0.927653
   10  N  1 XX   -0.132412   0.129276  -0.028745   0.091495   0.096923
   11  N  1 YY   -0.093015  -0.150860   0.040253   0.080969   0.109846
   12  N  1 ZZ    0.225427   0.021585  -0.011508  -0.172464  -0.206769
   13  N  1 XY   -0.044085  -0.098320  -0.002944  -0.001637  -0.014153
   14  N  1 XZ    0.000619  -0.228406  -0.024716   0.009844   0.007368
   15  N  1 YZ    0.013409  -0.147911  -0.014639  -0.029378   0.044776
   16  H  2  S   -0.226292   0.053521  -0.192693  -0.731083  -0.306383
   17  H  2  S   -0.292526   0.046739  -0.093270  -0.335778  -0.050128
   18  H  2  X    0.013843  -0.403399   0.630371  -0.077350  -0.034180
   19  H  2  Y   -0.021579  -0.294674   0.295686  -0.320763   0.210839
   20  H  2  Z    0.281788  -0.012352   0.144764   0.283627  -0.839060
   21  H  3  S   -0.394949   0.161043  -0.104828  -0.065480  -0.767907
   22  H  3  S   -0.289127   0.157290  -0.006792   0.007714  -0.269914
   23  H  3  X    0.147990  -0.056189  -0.252372   0.412855  -0.090419
   24  H  3  Y    0.067109   0.271301   0.295072  -0.364831   0.068158
   25  H  3  Z    0.347546   0.413357   0.088192  -0.474618   0.022072
   26  H  4  S   -0.374758  -0.069192   0.246347  -0.097546  -0.746093
   27  H  4  S   -0.279746  -0.081913   0.064871   0.008325  -0.196540
   28  H  4  X   -0.117040   0.090112   0.167941   0.001803  -0.027482
   29  H  4  Y   -0.093228  -0.200313  -0.578555  -0.385003   0.036702
   30  H  4  Z    0.352598  -0.353611  -0.277932  -0.398962  -0.185134

                     21         22         23         24         25
                    1.6203     1.8660     1.8845     2.0645     2.1615
                     A          A          A          A          A   
    1  N  1  S   -0.034435  -0.016324  -0.023713   0.061438  -0.087841
    2  N  1  S   -0.071370  -0.048367  -0.037406   0.255344  -0.198214
    3  N  1  S    0.110886   0.056187   0.149255   1.911265   0.002211
    4  N  1  X    0.199298  -0.221065   0.400273  -0.002747  -0.085632
    5  N  1  Y    0.158313   0.568378  -0.041338  -0.041926   0.161099
    6  N  1  Z   -0.010109  -0.059268   0.019111   0.368090  -0.064821
    7  N  1  X    0.606939  -0.138373  -0.174186   0.024148  -0.049591
    8  N  1  Y    0.175085  -0.016741  -0.128373   0.101002   0.028323
    9  N  1  Z    0.042780  -0.015977   0.076381   0.800242   0.292090
   10  N  1 XX    0.001006   0.145544  -0.243718  -0.116476  -0.594118
   11  N  1 YY    0.042764   0.004020   0.203885  -0.181334  -0.145405
   12  N  1 ZZ   -0.043770  -0.149564   0.039833   0.297810   0.739524
   13  N  1 XY    0.031630   0.302677   0.013712   0.143671  -0.567030
   14  N  1 XZ   -0.215697   0.060369  -0.119984   0.055740   0.106446
   15  N  1 YZ   -0.121063  -0.142832  -0.005701   0.079002  -0.378324
   16  H  2  S    0.047794   0.040134  -0.054192  -0.543718  -0.086403
   17  H  2  S    0.005079  -0.382978   0.105688  -0.380171  -0.107165
   18  H  2  X   -0.367000  -0.336273   0.111567  -0.578691  -0.045161
   19  H  2  Y   -0.169200   0.635021  -0.205908   0.698973   0.136375
   20  H  2  Z   -0.082872   0.393857  -0.184699  -0.163826  -0.038008
   21  H  3  S   -0.016445  -0.089121  -0.097656  -0.497033  -0.015507
   22  H  3  S    0.300856   0.304554   0.254010  -0.235517   0.093745
   23  H  3  X   -0.366387   0.438153   0.604067  -0.055086  -0.229098
   24  H  3  Y    0.339202   0.530425   0.319548  -0.747735   0.108022
   25  H  3  Z   -0.588682  -0.188386   0.014600   0.091790  -0.574438
   26  H  4  S   -0.128939  -0.008693   0.035961  -0.516485   0.001863
   27  H  4  S   -0.329939   0.069368  -0.416919  -0.296761   0.103144
   28  H  4  X    0.031089  -0.114314   0.927584   0.678916  -0.014040
   29  H  4  Y   -0.438604   0.137793   0.296972  -0.500060   0.316287
   30  H  4  Z    0.617601  -0.247980   0.109398   0.002962  -0.479892

                     26         27         28         29
                    2.3147     2.5869     2.7749     2.9031
                     A          A          A          A   
    1  N  1  S    0.019608  -0.020912  -0.071150   0.021883
    2  N  1  S    0.020959   0.097320  -0.168090   0.066284
    3  N  1  S   -0.341242   1.978488  -0.366619   0.274159
    4  N  1  X    0.021449   0.000990   0.466360   0.356667
    5  N  1  Y    0.049138  -0.132369  -0.458849   0.433519
    6  N  1  Z   -0.044701   0.305811  -0.067963   0.034952
    7  N  1  X    0.462594   0.188525   0.975953   0.598465
    8  N  1  Y    0.262185  -0.608495  -0.995043   0.749055
    9  N  1  Z   -0.144009   0.412225   0.043149  -0.011228
   10  N  1 XX   -0.556592   0.066991   0.466249   0.849972
   11  N  1 YY    0.570638   0.670256  -0.726289  -0.672481
   12  N  1 ZZ   -0.014046  -0.737246   0.260039  -0.177491
   13  N  1 XY    0.161928  -0.526129   0.587027  -0.933088
   14  N  1 XZ    0.769173   0.259375   0.783100   0.564969
   15  N  1 YZ    0.379488  -0.751024  -0.751752   0.616582
   16  H  2  S    0.098454  -0.437235   1.454171  -0.519860
   17  H  2  S    0.026984  -0.065629   0.531267  -0.166933
   18  H  2  X   -0.542140  -0.152183   0.614999  -0.140679
   19  H  2  Y   -0.426952   0.294078  -0.889305   0.372710
   20  H  2  Z    0.077741   0.525304  -0.375197   0.199555
   21  H  3  S    0.263554  -0.981621  -0.192281   1.147031
   22  H  3  S    0.207619  -0.328280  -0.057021   0.427771
   23  H  3  X   -0.294521  -0.406959  -0.049827   0.244023
   24  H  3  Y    0.424088  -0.490317  -0.041654   0.875088
   25  H  3  Z    0.189239   0.450757  -0.055613  -0.472983
   26  H  4  S   -0.040275  -0.802661  -0.835765  -0.950170
   27  H  4  S   -0.109711  -0.210312  -0.330344  -0.349400
   28  H  4  X    0.039776   0.491950   0.554199   0.776310
   29  H  4  Y   -0.231571   0.158059  -0.193688  -0.211611
   30  H  4  Z   -0.249480   0.372374   0.176371   0.461499
 .....DONE WITH MCSCF ITERATIONS.....
 CPU     0: STEP CPU TIME=     8.30 TOTAL CPU TIME=          9.5 (      0.2 MIN)
 TOTAL WALL CLOCK TIME=          9.5 SECONDS, CPU UTILIZATION IS   100.00%

     ----------------------------------------------------------------
     PROPERTY VALUES FOR THE MCSCF SELF-CONSISTENT FIELD WAVEFUNCTION
     ----------------------------------------------------------------

          -----------------
          ENERGY COMPONENTS
          -----------------

         WAVEFUNCTION NORMALIZATION =       1.0000000000

                ONE ELECTRON ENERGY =     -94.7546563721
                TWO ELECTRON ENERGY =      27.3255920305
           NUCLEAR REPULSION ENERGY =      11.6736205295
                                      ------------------
                       TOTAL ENERGY =     -55.7554438120

 ELECTRON-ELECTRON POTENTIAL ENERGY =      27.3255920305
  NUCLEUS-ELECTRON POTENTIAL ENERGY =    -150.6541887078
   NUCLEUS-NUCLEUS POTENTIAL ENERGY =      11.6736205295
                                      ------------------
             TOTAL POTENTIAL ENERGY =    -111.6549761478
               TOTAL KINETIC ENERGY =      55.8995323357
                 VIRIAL RATIO (V/T) =       1.9974223662

          ---------------------------------------
          MULLIKEN AND LOWDIN POPULATION ANALYSES
          ---------------------------------------

     ATOMIC MULLIKEN POPULATION IN EACH MOLECULAR ORBITAL

                      1          2          3          4          5

                  2.000000   1.984048   1.656779   1.651038   1.646223

    1             2.000993   1.305624   1.533512   0.925929   1.060984
    2            -0.000368   0.204980   0.078625   0.400585   0.008349
    3            -0.000319   0.244985   0.023224   0.139081   0.309574
    4            -0.000305   0.228459   0.021418   0.185443   0.267315

                      6          7          8

                  0.024338   0.019201   0.018373

    1             0.012029   0.010370   0.009611
    2             0.000142   0.000056   0.008668
    3             0.005872   0.004620  -0.000040
    4             0.006295   0.004155   0.000135
 WARNING! MCSCF POPULATIONS SHOWN ABOVE ARE FOR THE NATURAL ORBITALS.
 IGNORE THE ABOVE DATA FOR MCSCF FUNCTIONS WHICH ARE NOT OF -FORS- TYPE.
 THE FOLLOWING POPULATIONS ARE CORRECT FOR ANY MCSCF WAVEFUNCTION.

               ----- POPULATIONS IN EACH AO -----
                             MULLIKEN      LOWDIN
              1  N  1  S      2.00272     1.89454
              2  N  1  S      0.82603     0.57611
              3  N  1  S      0.62766     0.39078
              4  N  1  X      0.69869     0.62752
              5  N  1  Y      0.68359     0.60679
              6  N  1  Z      0.88562     0.82761
              7  N  1  X      0.31862     0.40513
              8  N  1  Y      0.28003     0.38721
              9  N  1  Z      0.51747     0.55397
             10  N  1 XX      0.00054     0.16427
             11  N  1 YY      0.00272     0.17277
             12  N  1 ZZ      0.00250     0.14181
             13  N  1 XY      0.00609     0.00952
             14  N  1 XZ      0.00677     0.01072
             15  N  1 YZ      0.00000     0.01312
             16  H  2  S      0.61534     0.47820
             17  H  2  S      0.02758     0.14132
             18  H  2  X      0.01640     0.03273
             19  H  2  Y      0.02875     0.04966
             20  H  2  Z      0.01297     0.03626
             21  H  3  S      0.62613     0.48460
             22  H  3  S      0.04222     0.14209
             23  H  3  X      0.01205     0.02666
             24  H  3  Y      0.03033     0.05060
             25  H  3  Z      0.01627     0.04011
             26  H  4  S      0.61511     0.47670
             27  H  4  S      0.03994     0.14270
             28  H  4  X      0.03245     0.05475
             29  H  4  Y      0.01023     0.02365
             30  H  4  Z      0.01519     0.03812

          ----- MULLIKEN ATOMIC OVERLAP POPULATIONS -----
          (OFF-DIAGONAL ELEMENTS NEED TO BE MULTIPLIED BY 2)

             1           2           3           4

    1    5.9281318
    2    0.3224268   0.3893942
    3    0.3049494  -0.0052088   0.4346700
    4    0.3035439  -0.0055754  -0.0074135   0.4223592

          TOTAL MULLIKEN AND LOWDIN ATOMIC POPULATIONS
       ATOM         MULL.POP.    CHARGE          LOW.POP.     CHARGE
    1 N             6.859052    0.140948         6.781867    0.218133
    2 H             0.701037    0.298963         0.738166    0.261834
    3 H             0.726997    0.273003         0.744055    0.255945
    4 H             0.712914    0.287086         0.735912    0.264088

          MULLIKEN SPHERICAL HARMONIC POPULATIONS
       ATOM           S       P       D      F      G      H      I    TOTAL
    1 N             3.46    3.38    0.02   0.00   0.00   0.00   0.00    6.86
    2 H             0.64    0.06    0.00   0.00   0.00   0.00   0.00    0.70
    3 H             0.67    0.06    0.00   0.00   0.00   0.00   0.00    0.73
    4 H             0.66    0.06    0.00   0.00   0.00   0.00   0.00    0.71

          ---------------------
          ELECTROSTATIC MOMENTS
          ---------------------

 POINT   1           X           Y           Z (BOHR)    CHARGE
                 0.000001   -0.000002   -0.177185        1.00 (A.U.)
         DX          DY          DZ         /D/  (DEBYE)
     0.108621   -0.317692    2.154157    2.180164
 ...... END OF PROPERTY EVALUATION ......
 CPU     0: STEP CPU TIME=     0.00 TOTAL CPU TIME=          9.5 (      0.2 MIN)
 TOTAL WALL CLOCK TIME=          9.5 SECONDS, CPU UTILIZATION IS    99.90%

     -------------------------------------------------
     GMC-PT/GMC-QDPT or general MCSCF input parameters
     -------------------------------------------------
 # of frozen core orbs. =         0 ->         0
 # of doubly occ. orbs. =         1
 # of active      orbs. =         7
 # of virtual     orbs. =        21
 # of active electrons  =         7
 # of states in CI      =         3
 Highest state in CI    =         3
 kstate =  1 1 1
 avecoe =  0.333 0.333 0.333
 State symmetry           = A           
 Assigned symmetry number = 1

 <<<Act. MO sym.: 1111111

 <<<Division of 1-ext.:  0
 <<<Division of 2-ext.:  0

     ------------------------
     Orbital canonicalization
     ------------------------

 MOs are canonicalized for core, virtual, and invariant-active orbital spaces.
 This is a part of the GMC-QDPT calculation.
 SCHWARZ INEQUALITY OVERHEAD:       465 INTEGRALS, T=        0.01
 DIRECT TRANSFORMATION SKIPS AO INTEGRAL STORAGE ON DISK.

 Averaged energy =     -55.755443812

 State #    1  Energy =     -55.896627994  S =  0.500
 State #    2  Energy =     -55.737555081  S =  0.500
 State #    3  Energy =     -55.632148361  S =  0.500

 Orbital energies for filled orbital space
  -15.987221
 Orbital energies for active orbital space
   -1.531779  -0.878245  -0.990630  -0.757879   0.393716
    0.298459   0.417911
 Orbital energies for external orbital space
    0.148899   0.197015   0.208164   0.546670   0.560333
    0.630320   0.812999   0.965674   1.018929   1.341489
    1.426560   1.516463   1.620317   1.866012   1.884543
    2.064528   2.161483   2.314712   2.586895   2.774871
    2.903112

 Zero values mean non-canonical orbitals.
 ... done with orbital canonicalization ...
 CPU     0: STEP CPU TIME=     0.60 TOTAL CPU TIME=         10.1 (      0.2 MIN)
 TOTAL WALL CLOCK TIME=         10.1 SECONDS, CPU UTILIZATION IS    99.90%

     --------------------------------------------
     PARTIAL TWO ELECTRON INTEGRAL TRANSFORMATION
     --------------------------------------------

 NUMBER OF CORE MOLECULAR ORBITALS     =    0
 NUMBER OF OCCUPIED MOLECULAR ORBITALS =    8
 TOTAL NUMBER OF MOLECULAR ORBITALS    =   29
 TOTAL NUMBER OF ATOMIC ORBITALS       =   30
 THRESHOLD FOR KEEPING TRANSFORMED 2E- INTEGRALS = 1.000E-09
 AO INTEGRALS WILL BE CALCULATED IN DIRECT MODE...
 DIRECT TRANSFORMATION SKIPS AO INTEGRAL STORAGE ON DISK.
 SCHWARZ INEQUALITY OVERHEAD:       465 INTEGRALS, T=        0.00

 PLAN A: REQUIREMENTS FOR FULLY IN-MEMORY TRANSFORMATION:
 # OF WORDS AVAILABLE =            100000000
 # OF WORDS NEEDED    =               221798

 PARALLEL ONLY WORKS WITH THE SEGMENTED ALGORITHM.
 ADJUSTING MEMORY TO USE SEGMENTED ALGORITHM.


 PLAN B: REQUIREMENTS FOR THE SEGMENTED TRANSFORMATION:
       MINIMUM=         124148 WORDS FOR 1 MOLECULAR ORBITAL PER PASS
       MAXIMUM=         221798 WORDS FOR ALL MOLECULAR ORBITALS IN 1 PASS
              (          13950 EXTRA WORDS INCLUDES 1 EXTRA ORBITAL/PASS)
 THIS RUN USES=         221798 WORDS,
 DISTRIBUTING   1 PASSES EACH CONTAINING     8 ORBITALS OVER   1 PROCESSORS.

 CHOOSING SEGMENTED PARTIAL TRANSFORMATION...
 DIRECT TRANSFORMATION SKIPS AO INTEGRAL STORAGE ON DISK.
 PASS #   1 TOOK        0.04 SECONDS.
 TOTAL NUMBER OF TRANSFORMED 2E- INTEGRALS KEPT =        29226
 ... END OF INTEGRAL TRANSFORMATION ...
 CPU     0: STEP CPU TIME=     0.04 TOTAL CPU TIME=         10.2 (      0.2 MIN)
 TOTAL WALL CLOCK TIME=         10.2 SECONDS, CPU UTILIZATION IS    99.80%

     --------     ------------------------------------------
     GMC-QDPT     Program written by H.Nakano (Kyushu Univ.)
     --------     ------------------------------------------

 *** Reference space

 Reference type: ORMAS (= Occupation restricted multiple active space)
 # of orbitals          =  7
 # of minimum electrons =  7
 # of maximum electrons =  7
 State symmetry    =    1 (input)
 2*Sz              =    1 (input)
 Spin multiplicity =    2 (input)
 Dimension of reference space =      1225  (from      3432 walks)

 Dimension of reference space =      1225  (from      1225 walks)

 <<<Ionized spaces for Ref-CI:
      0:         1225 /   -1-0:         1960 /  0-1-0:         2891

 ***                    ***
 *** Reference space CI ***
 ***                    ***

 Converged after   33 iterations

 Reference wavefunctions:

 State #    1  Energy =     -55.896627994  S =  0.500

      Det      Coef    Occupancy (Ignoring core)
      ---      ----    --------- --------- -----
        1   -0.979405  11110001110000
      393   -0.080170  10110101010010
      717   -0.064985  11010011100001

 State #    2  Energy =     -55.737555081  S =  0.500

      Det      Coef    Occupancy (Ignoring core)
      ---      ----    --------- --------- -----
       71   -0.984472  11110001011000
      822    0.064345  11010011001001

 State #    3  Energy =     -55.632148361  S =  0.500

      Det      Coef    Occupancy (Ignoring core)
      ---      ----    --------- --------- -----
       36    0.981533  11110001101000
      463    0.080127  10110101001010

 Davidson method: CPU/Wall time =           0.45 /           0.45 sec.

 Oscillator strength (invalid if E(1)/=E(GS)):
 -----------------------------------------
   State                        f
 -----------------------------------------
     2     F(REF-CI)=        0.0001681647
     3     F(REF-CI)=        0.0011411722
 -----------------------------------------

 Dipole moment matrix elements, x, y, z, in A.U.

 Dimension of ionized spaces for PT:
 (N-2) space:         1715 /  (N-1) space:         2842 /  N space:         2891
 (N+1) space:         2842 /  (N+2) space:         1715

 <<<Ionized spaces for internal:
         0:         1225 /      -1-0:         1960 /     0-1-0:         2891
  -1-0-1-0:         2842 / 0-1-0-1-0:         3381

 Diagonal elements of averaged one-particle density matrix:
       2       3       4       5       6       7       8
  0.9941  0.9876  0.9893  0.9931  0.0104  0.0144  0.0110
  0.9898  0.6585  0.6616  0.6636  0.0087  0.0101  0.0077

 Orbital energies:
 -------- Doubly-occupied orbitals (highest several orbs.) -------
             1
 -1.598722D+01
 -------- Active orbitals ----------------------------------------
             2            3            4            5            6
 -1.531779D+00-8.782454D-01-9.906300D-01-7.578793D-01 3.937161D-01
             7            8
  2.984585D-01 4.179112D-01
 -------- External orbitals (lowest several orbs.) ---------------
             9           10           11           12           13
  1.488988D-01 1.970155D-01 2.081636D-01 5.466703D-01 5.603326D-01
            14           15           16           17           18
  6.303198D-01 8.129991D-01 9.656737D-01 1.018929D+00 1.341489D+00

 *** Quasi-degeneracy checking

 === Det (|Ci| > 1.0D-01 and dE < 5.0D-03)

 # of small denominators (single excitations)
 State       dEmin  dE < 5.0D-03  dE < 5.0D-04  dE < 5.0D-05  dE < 5.0D-06
 ----- ----------- ------------- ------------- ------------- -------------
     1    5.00D-03             0             0             0             0
     2    5.00D-03             0             0             0             0
     3    5.00D-03             0             0             0             0

 # of small denominators (double excitations)
 State       dEmin  dE < 5.0D-03  dE < 5.0D-04  dE < 5.0D-05  dE < 5.0D-06
 ----- ----------- ------------- ------------- ------------- -------------
     1    5.00D-03             0             0             0             0
     2    5.00D-03             0             0             0             0
     3    5.00D-03             0             0             0             0

 *** Zeroth-Order Setup (Granovsky's zeroth-order vectors)
 Zeroth-order effective Hamiltonian
  (= Sum_i e(i)*<I|a+(i)a(i)|J> ):
                   1            2            3
     1 -7.458529D+00
     2 -2.237741D-03-7.360312D+00
     3 -2.339119D-03 6.034768D-04-7.240068D+00

 Zeroth-order vectors:
 State #    1
       MC st            1           2           3
       Coeff    9.997D-01   2.269D-02   1.064D-02
 State #    2
       MC st            2           1           3
       Coeff    9.997D-01  -2.264D-02  -5.460D-03
 State #    3
       MC st            3           1           2
       Coeff    9.999D-01  -1.076D-02   5.217D-03

 *** GMC-QDPT computation

 (Integral reading:  CPU/Wall time =           0.00 /           0.00 sec.)

 One-external:
   0 -ionized terms: CPU/Wall time =           0.04 /           0.03 sec.
 (-1)-ionized terms: CPU/Wall time =           0.08 /           0.09 sec.
 (+1)-ionized terms: CPU/Wall time =           0.03 /           0.02 sec.
 (+1)-ionized terms: CPU/Wall time =           0.00 /           0.00 sec.
 (+2)-ionized terms: CPU/Wall time =           0.00 /           0.01 sec.

 Internal:
 # of macro loops for internal contribution =         1 (input)
 Loop:    1
 Dimension of internal CISD space     =         0  (after screening)
 Space construction: CPU/Wall time =           0.02 /           0.01 sec.
 Internal terms:     CPU/Wall time =           0.00 /           0.00 sec.

 Two-external:
   0 -ionized terms: CPU/Wall time =           0.06 /           0.06 sec.
 (-1)-ionized terms: CPU/Wall time =           0.98 /           0.98 sec.
 (-2)-ionized terms: CPU/Wall time =           0.17 /           0.17 sec.

 Total time:         CPU/Wall time =           1.38 /           1.37 sec.

 ***                  ***
 *** GMC-QDPT Results ***
 ***                  ***

 Diagonal elements of effective Hamiltonian:
 Heff(  1) =   -55.99427334
 Heff(  2) =   -55.84660305
 Heff(  3) =   -55.74317936

 Off-diagonal elements of effective Hamiltonian:
                   1            2
     2  3.198845D-03
     3  2.479949D-03-5.621373D-04

 ******** GMC-QDPT energies ********
 ----------------------------------------------------------------------------
   State                        1st order                           2nd order
 ----------------------------------------------------------------------------
     1     E(REF-CI)=      -55.8966279939   E(GMC-QDPT2)=      -55.9943673164
     2     E(REF-CI)=      -55.7375550815   E(GMC-QDPT2)=      -55.8465362906
     3     E(REF-CI)=      -55.6321483607   E(GMC-QDPT2)=      -55.7431521426
 ----------------------------------------------------------------------------

 Excitation energies (invalid if E(1)/=E(GS)):
 ----------------------------------------------------------------------------
   State                        1st order                           2nd order
 ----------------------------------------------------------------------------

     TZ Sorted GMC-PT ENERGIES:
         1      -55.9943673164
         2      -55.8465362906
         3      -55.7431521426
     2     E(REF-CI)=        4.3285966 eV   E(GMC-QDPT2)=        4.0226892 eV
     3     E(REF-CI)=        7.1968611 eV   E(GMC-QDPT2)=        6.8359166 eV
 ----------------------------------------------------------------------------

 Main characters of perturbed GMC-QDPT states:

 State #    1  Energy =     -55.994367316  S =  0.500

      Det      Coef    Occupancy (Ignoring core)
      ---      ----    --------- --------- -----
        1   -0.979418  11110001110000
      393   -0.080167  10110101010010
      717   -0.064975  11010011100001

 State #    2  Energy =     -55.846536291  S =  0.500

      Det      Coef    Occupancy (Ignoring core)
      ---      ----    --------- --------- -----
       71   -0.984483  11110001011000
      822    0.064345  11010011001001

 State #    3  Energy =     -55.743152143  S =  0.500

      Det      Coef    Occupancy (Ignoring core)
      ---      ----    --------- --------- -----
       36    0.981536  11110001101000
      463    0.080128  10110101001010

 <<<Max |V/de| = 2.191D-02  Thresh = 1.000D+00

 Oscillator strength (invalid if E(1)/=E(GS)):
 ----------------------------------------------------------------------------
   State                        1st order                           2nd order
 ----------------------------------------------------------------------------
     2     F(REF-CI)=        0.0001681647     F(GMC-PT2)=        0.0001597826
     3     F(REF-CI)=        0.0011411722     F(GMC-PT2)=        0.0010976985
 ----------------------------------------------------------------------------

 Dipole moment matrix elements, x, y, z, in A.U.
States    1    1        0.0598601191       -0.1670020153        0.7640557318
States    1    2        0.0241589954        0.0206408516       -0.0247298838
States    1    3        0.0377915564       -0.0511180260       -0.0501306129
States    2    1        0.0241589954        0.0206408516       -0.0247298838
States    2    2       -0.0561678803        0.0347239826        0.2565046705
States    2    3        0.1900197888        0.0595792358       -0.0005914363
States    3    1        0.0377915564       -0.0511180260       -0.0501306129
States    3    2        0.1900197888        0.0595792358       -0.0005914363
States    3    3        0.1822464597       -0.4351699529        0.2491099964

 Oscillator strength (valid only when positive): 
 ----------------------------------------------------------------------------
  States                        1st order                           2nd order
 ----------------------------------------------------------------------------
  1  1     F(REF-CI)=        0.0000000000     F(GMC-PT2)=        0.0000000000
  1  2     F(REF-CI)=       -0.0001681647     F(GMC-PT2)=       -0.0001597826
  1  3     F(REF-CI)=       -0.0011411722     F(GMC-PT2)=       -0.0010976985
  2  1     F(REF-CI)=        0.0001681647     F(GMC-PT2)=        0.0001597826
  2  2     F(REF-CI)=        0.0000000000     F(GMC-PT2)=        0.0000000000
  2  3     F(REF-CI)=       -0.0027887851     F(GMC-PT2)=       -0.0027333084
  3  1     F(REF-CI)=        0.0011411722     F(GMC-PT2)=        0.0010976985
  3  2     F(REF-CI)=        0.0027887851     F(GMC-PT2)=        0.0027333084
  3  3     F(REF-CI)=        0.0000000000     F(GMC-PT2)=        0.0000000000
 CPU     0: STEP CPU TIME=     1.89 TOTAL CPU TIME=         12.0 (      0.2 MIN)
 TOTAL WALL CLOCK TIME=         12.1 SECONDS, CPU UTILIZATION IS    99.92%

     !!! DIABATIZATION FOR REF CI STATES !!!

 *******************************************************
          $DMO GROUP FOUND IN THE INPUT.
        DIABATIZATION OF ADIABATIC STATES BEGINS.
     PROGRAMMED BY TAO ZENG (CARLETON UNIVERSITY).
               Email: toby.zeng@carleton.ca
     See T. Zeng, J. Chem. Phys. 2017, 146, 144103
 *******************************************************

 *************************************************************************
     STEP 1: TRANSFORMATION OF ADIABATIC STATES TO THE DMO REPRESENTATION
         See Atchity and Ruedenberg, J. Chem. Phys. 1999, 111, 2910
 *************************************************************************

Read in Diabatic Molecualr Orbitals:

                      1          2          3          4          5

    1  N  1  S    0.008609   0.000000   0.000000  -0.013219   0.279491
    2  N  1  S    0.442914  -0.000000   0.000000  -0.184329   0.867803
    3  N  1  S    0.276913   0.000000  -0.000000  -0.288315   0.144236
    4  N  1  X   -0.000000   0.493155  -0.024636  -0.000000  -0.000000
    5  N  1  Y    0.000000   0.024636   0.493155  -0.000000   0.000000
    6  N  1  Z    0.090197   0.000000   0.000000   0.593421   0.705309
    7  N  1  X   -0.000000   0.210628  -0.010522   0.000000   0.000000
    8  N  1  Y    0.000000   0.010522   0.210628  -0.000000  -0.000000
    9  N  1  Z   -0.004381   0.000000   0.000000   0.381592  -0.106092
   10  N  1 XX   -0.000457   0.010719  -0.000535  -0.012387   0.006153
   11  N  1 YY   -0.000457  -0.010719   0.000535  -0.012387   0.006153
   12  N  1 ZZ    0.000914  -0.000000   0.000000   0.024773  -0.012306
   13  N  1 XY    0.000000  -0.000618  -0.012377  -0.000000   0.000000
   14  N  1 XZ   -0.000000   0.026529  -0.001325  -0.000000   0.000000
   15  N  1 YZ    0.000000   0.001325   0.026529  -0.000000   0.000000
   16  H  2  S    0.194462  -0.176074   0.343485   0.112865  -0.523343
   17  H  2  S    0.003574  -0.023812   0.046452   0.024014  -0.054445
   18  H  2  X    0.018760   0.009101   0.022834   0.009336  -0.039151
   19  H  2  Y   -0.032493   0.022287  -0.020044  -0.016171   0.067811
   20  H  2  Z   -0.009251   0.008464  -0.016511   0.018769  -0.010566
   21  H  3  S    0.194462  -0.209430  -0.324227   0.112865  -0.523343
   22  H  3  S    0.003574  -0.028322  -0.043847   0.024014  -0.054445
   23  H  3  X    0.018760   0.006781  -0.023627   0.009336  -0.039151
   24  H  3  Y    0.032493  -0.024174  -0.017723   0.016171  -0.067811
   25  H  3  Z   -0.009251   0.010067   0.015585   0.018769  -0.010566
   26  H  4  S    0.194462   0.385503  -0.019258   0.112865  -0.523343
   27  H  4  S    0.003574   0.052134  -0.002604   0.024014  -0.054445
   28  H  4  X   -0.037519  -0.032295   0.001613  -0.018672   0.078302
   29  H  4  Y    0.000000   0.001067   0.021353  -0.000000   0.000000
   30  H  4  Z   -0.009251  -0.018530   0.000926   0.018769  -0.010566

                      6          7

    1  N  1  S    0.000000  -0.000000
    2  N  1  S    0.000000  -0.000000
    3  N  1  S   -0.000000   0.000000
    4  N  1  X   -0.930415  -0.002083
    5  N  1  Y   -0.002083   0.930415
    6  N  1  Z   -0.000000   0.000000
    7  N  1  X   -0.046866  -0.000105
    8  N  1  Y   -0.000105   0.046866
    9  N  1  Z   -0.000000   0.000000
   10  N  1 XX    0.001538   0.000003
   11  N  1 YY   -0.001538  -0.000003
   12  N  1 ZZ   -0.000000   0.000000
   13  N  1 XY   -0.000004   0.001776
   14  N  1 XZ    0.039985   0.000090
   15  N  1 YZ    0.000090  -0.039985
   16  H  2  S   -0.362630  -0.631354
   17  H  2  S   -0.065964  -0.114846
   18  H  2  X    0.002763  -0.037520
   19  H  2  Y    0.037435   0.040736
   20  H  2  Z    0.001882   0.003276
   21  H  3  S   -0.365454   0.629724
   22  H  3  S   -0.066477   0.114549
   23  H  3  X    0.002595   0.037532
   24  H  3  Y   -0.037617   0.040567
   25  H  3  Z    0.001896  -0.003268
   26  H  4  S    0.728084   0.001630
   27  H  4  S    0.132441   0.000297
   28  H  4  X   -0.062317  -0.000140
   29  H  4  Y    0.000055  -0.024345
   30  H  4  Z   -0.003778  -0.000008

NUMBER OF SUB ACTIVE SPACES:   1
ROTATE ACTIVE MOS TO DMOS IN EACH SUB-SPACE

SPACE  1:

OVERLAP BETWEEN ORTHONORMAL AND PRE-ORTHONORMAL REF. DMOS

             1           2           3           4           5

    1    0.9952394   0.0018843  -0.0123896  -0.0017137  -0.0004639
    2    0.0018843   0.9731603  -0.0357481   0.0047970  -0.0125977
    3   -0.0123896  -0.0357481   1.0089060  -0.0196699   0.0409578
    4   -0.0017137   0.0047970  -0.0196699   0.9986600  -0.0022297
    5   -0.0004639  -0.0125977   0.0409578  -0.0022297   1.0335959
    6   -0.0013581  -0.0179086  -0.0309673   0.0090230  -0.0129953
    7   -0.0032794   0.0325652  -0.0112899   0.0242652  -0.0109907

             6           7

    1   -0.0013581  -0.0032794
    2   -0.0179086   0.0325652
    3   -0.0309673  -0.0112899
    4    0.0090230   0.0242652
    5   -0.0129953  -0.0109907
    6    1.0154252  -0.0145812
    7   -0.0145812   1.0071493
REFERENCE DMOS AFTER ORTHONORMALIZATION:

                      1          2          3          4          5

    1  N  1  S    0.008627   0.003111  -0.010897  -0.012953   0.270928
    2  N  1  S    0.444765   0.009518  -0.031371  -0.183065   0.841071
    3  N  1  S    0.277745   0.002187  -0.007551  -0.288341   0.139534
    4  N  1  X   -0.002701   0.489713  -0.035069   0.005927  -0.004399
    5  N  1  Y    0.009282   0.013017   0.500733  -0.013035  -0.009485
    6  N  1  Z    0.091760   0.005488  -0.014826   0.595724   0.684330
    7  N  1  X   -0.000545   0.215786  -0.004282  -0.000545   0.002181
    8  N  1  Y    0.002759   0.016945   0.210524   0.002814  -0.007524
    9  N  1  Z   -0.003687  -0.002534   0.011225   0.382391  -0.102461
   10  N  1 XX   -0.000503   0.011169  -0.000574  -0.012473   0.006109
   11  N  1 YY   -0.000461  -0.010943  -0.000378  -0.012349   0.005796
   12  N  1 ZZ    0.000965  -0.000226   0.000952   0.024822  -0.011905
   13  N  1 XY   -0.000147  -0.001143  -0.012328  -0.000274   0.000487
   14  N  1 XZ    0.000011   0.028047   0.000861  -0.000471   0.000806
   15  N  1 YZ    0.000190   0.003625   0.026079   0.001452  -0.001402
   16  H  2  S    0.197379  -0.161893   0.343156   0.138359  -0.532838
   17  H  2  S    0.003742  -0.021075   0.044863   0.028309  -0.056708
   18  H  2  X    0.019015   0.010981   0.024702   0.010626  -0.039063
   19  H  2  Y   -0.032763   0.022487  -0.020933  -0.017962   0.067575
   20  H  2  Z   -0.009465   0.007884  -0.015397   0.018349  -0.009441
   21  H  3  S    0.193480  -0.261396  -0.310795   0.095729  -0.495018
   22  H  3  S    0.003417  -0.036443  -0.043014   0.021137  -0.051010
   23  H  3  X    0.018700   0.004470  -0.020922   0.007963  -0.036557
   24  H  3  Y    0.032577  -0.028439  -0.015960   0.015312  -0.065337
   25  H  3  Z   -0.009092   0.010911   0.016553   0.019106  -0.010724
   26  H  4  S    0.196051   0.403859   0.041680   0.104832  -0.493799
   27  H  4  S    0.003752   0.055443   0.005928   0.022624  -0.050546
   28  H  4  X   -0.037777  -0.033412  -0.005295  -0.018015   0.074748
   29  H  4  Y    0.000180   0.002663   0.021065   0.000981  -0.001051
   30  H  4  Z   -0.009227  -0.019303   0.000781   0.018904  -0.010508

                      6          7

    1  N  1  S    0.003361   0.003123
    2  N  1  S    0.012406   0.014557
    3  N  1  S    0.004661   0.009286
    4  N  1  X   -0.909281  -0.031660
    5  N  1  Y    0.026805   0.929632
    6  N  1  Z    0.003133  -0.006884
    7  N  1  X   -0.042557  -0.007710
    8  N  1  Y    0.007192   0.048308
    9  N  1  Z   -0.004563  -0.010201
   10  N  1 XX    0.001883   0.000029
   11  N  1 YY   -0.001526   0.000683
   12  N  1 ZZ   -0.000357  -0.000712
   13  N  1 XY   -0.000368   0.001668
   14  N  1 XZ    0.039910  -0.000210
   15  N  1 YZ    0.000349  -0.039571
   16  H  2  S   -0.366366  -0.631601
   17  H  2  S   -0.066590  -0.115099
   18  H  2  X    0.002555  -0.037915
   19  H  2  Y    0.038195   0.041101
   20  H  2  Z    0.001259   0.002268
   21  H  3  S   -0.372047   0.617757
   22  H  3  S   -0.066644   0.112412
   23  H  3  X    0.002005   0.036385
   24  H  3  Y   -0.038395   0.039488
   25  H  3  Z    0.002188  -0.003987
   26  H  4  S    0.718316  -0.007849
   27  H  4  S    0.130736  -0.000623
   28  H  4  X   -0.061039   0.001125
   29  H  4  Y    0.000376  -0.024051
   30  H  4  Z   -0.004353  -0.000039

 -------------------------------------------
       MAXIMIZING MORMO OVERLAP TERM        
 -------------------------------------------
   SWEEP    VALUE       PROGRESS
     0     5.68955
     1     6.98632     1.29676978
     2     6.98922     0.00290073
     3     6.98922     0.00000012
     4     6.98922    -0.00000000
     5     6.98922     0.00000000
 THE ROTATION IS DONE
ACTIVE ORBITALS AFTER MORMO:

                      1          2          3          4          5

    1  N  1  S    0.008162   0.003642  -0.014378  -0.012749   0.257303
    2  N  1  S    0.439808   0.006436  -0.030259  -0.184819   0.823474
    3  N  1  S    0.292718   0.001341   0.015002  -0.284917   0.159627
    4  N  1  X   -0.002920   0.479420  -0.042268   0.005740  -0.005741
    5  N  1  Y    0.005632   0.005476   0.496783  -0.017888  -0.002481
    6  N  1  Z    0.088913   0.007061  -0.022403   0.596079   0.676423
    7  N  1  X   -0.000546   0.233112   0.023460  -0.006931   0.006559
    8  N  1  Y    0.009149   0.044617   0.202918   0.024206  -0.024796
    9  N  1  Z    0.004176  -0.007278   0.031923   0.382187  -0.092315
   10  N  1 XX   -0.001239   0.011182   0.001682  -0.011352   0.013370
   11  N  1 YY    0.000390  -0.010991  -0.002294  -0.012812  -0.006773
   12  N  1 ZZ    0.000849  -0.000192   0.000612   0.024164  -0.006597
   13  N  1 XY   -0.002082  -0.003727  -0.012955   0.000688   0.030825
   14  N  1 XZ    0.000845   0.025665   0.001079  -0.000816  -0.007636
   15  N  1 YZ   -0.001066   0.003624   0.023266   0.000609   0.024717
   16  H  2  S    0.188484  -0.172621   0.346701   0.123919  -0.527335
   17  H  2  S    0.000588  -0.017346   0.040569   0.027528  -0.054876
   18  H  2  X    0.020218   0.005732   0.026273   0.009153  -0.038538
   19  H  2  Y   -0.031985   0.024156  -0.022226  -0.014500   0.062200
   20  H  2  Z   -0.005894   0.007201  -0.013173   0.019876  -0.010160
   21  H  3  S    0.192413  -0.229739  -0.317008   0.103179  -0.502008
   22  H  3  S    0.003974  -0.054351  -0.050672   0.022903  -0.055785
   23  H  3  X    0.011041   0.010782  -0.016716   0.008125  -0.035594
   24  H  3  Y    0.033106  -0.024490  -0.019081   0.016646  -0.062958
   25  H  3  Z   -0.011211   0.009957   0.019523   0.018285  -0.010879
   26  H  4  S    0.191960   0.389826   0.003961   0.107190  -0.494316
   27  H  4  S    0.003401   0.070179   0.016982   0.024863  -0.054827
   28  H  4  X   -0.034128  -0.031031   0.003117  -0.017838   0.071287
   29  H  4  Y    0.008462   0.011303   0.019725   0.002076  -0.003257
   30  H  4  Z   -0.009840  -0.019722   0.004016   0.018512  -0.012564

                      6          7

    1  N  1  S    0.018029   0.035629
    2  N  1  S    0.038876   0.079616
    3  N  1  S   -0.028543  -0.074800
    4  N  1  X   -0.910448  -0.024284
    5  N  1  Y    0.019649   0.921052
    6  N  1  Z   -0.003551  -0.032708
    7  N  1  X   -0.041203  -0.027002
    8  N  1  Y    0.026024   0.066068
    9  N  1  Z   -0.002704   0.005515
   10  N  1 XX    0.006950  -0.024414
   11  N  1 YY   -0.009613   0.018327
   12  N  1 ZZ    0.002663   0.006087
   13  N  1 XY   -0.023994  -0.002969
   14  N  1 XZ    0.035532   0.013553
   15  N  1 YZ   -0.012465  -0.045000
   16  H  2  S   -0.370499  -0.630399
   17  H  2  S   -0.065893  -0.112600
   18  H  2  X   -0.009083  -0.036392
   19  H  2  Y    0.035994   0.044823
   20  H  2  Z   -0.005090  -0.003305
   21  H  3  S   -0.346318   0.619931
   22  H  3  S   -0.083051   0.126511
   23  H  3  X    0.015139   0.037042
   24  H  3  Y   -0.036525   0.037660
   25  H  3  Z    0.013503  -0.000938
   26  H  4  S    0.708075   0.019473
   27  H  4  S    0.150500  -0.005520
   28  H  4  X   -0.058308  -0.007700
   29  H  4  Y    0.008545  -0.029915
   30  H  4  Z   -0.004642   0.013710

Actually Used Diabatic Molecualr Orbitals:

                      1          2          3          4          5

    1  N  1  S    0.008162   0.003642  -0.014378  -0.012749   0.257303
    2  N  1  S    0.439808   0.006436  -0.030259  -0.184819   0.823474
    3  N  1  S    0.292718   0.001341   0.015002  -0.284917   0.159627
    4  N  1  X   -0.002920   0.479420  -0.042268   0.005740  -0.005741
    5  N  1  Y    0.005632   0.005476   0.496783  -0.017888  -0.002481
    6  N  1  Z    0.088913   0.007061  -0.022403   0.596079   0.676423
    7  N  1  X   -0.000546   0.233112   0.023460  -0.006931   0.006559
    8  N  1  Y    0.009149   0.044617   0.202918   0.024206  -0.024796
    9  N  1  Z    0.004176  -0.007278   0.031923   0.382187  -0.092315
   10  N  1 XX   -0.001239   0.011182   0.001682  -0.011352   0.013370
   11  N  1 YY    0.000390  -0.010991  -0.002294  -0.012812  -0.006773
   12  N  1 ZZ    0.000849  -0.000192   0.000612   0.024164  -0.006597
   13  N  1 XY   -0.002082  -0.003727  -0.012955   0.000688   0.030825
   14  N  1 XZ    0.000845   0.025665   0.001079  -0.000816  -0.007636
   15  N  1 YZ   -0.001066   0.003624   0.023266   0.000609   0.024717
   16  H  2  S    0.188484  -0.172621   0.346701   0.123919  -0.527335
   17  H  2  S    0.000588  -0.017346   0.040569   0.027528  -0.054876
   18  H  2  X    0.020218   0.005732   0.026273   0.009153  -0.038538
   19  H  2  Y   -0.031985   0.024156  -0.022226  -0.014500   0.062200
   20  H  2  Z   -0.005894   0.007201  -0.013173   0.019876  -0.010160
   21  H  3  S    0.192413  -0.229739  -0.317008   0.103179  -0.502008
   22  H  3  S    0.003974  -0.054351  -0.050672   0.022903  -0.055785
   23  H  3  X    0.011041   0.010782  -0.016716   0.008125  -0.035594
[...]
      323   -0.028310    0.028310  +022-+0
      320    0.028140    0.028140  0+22200
      111    0.027573   -0.027573  +22-0+0
      121    0.026133   -0.026133  +22-00+
      253    0.024382    0.024382  20+2-+0
      332   -0.024312    0.024312  ++-2-0+
      472    0.023902    0.023902  2+020-+
      810   -0.023507   -0.023507  -++2+0-
       73    0.023057   -0.023057  2+-2+00
      177    0.023053   -0.023053  2+20200
      248    0.023045   -0.023045  2+02200
      183   -0.022349    0.022349  202+-+0
      180   -0.022296    0.022296  -+2+200
      317    0.022118   -0.022118  ++2-200
        6    0.021718   -0.021718  22200+0
       86    0.021474    0.021474  2+2-00+
       39   -0.021239   -0.021239  2-+2+00
       99   -0.020066    0.020066  20-20++

 State #    3  Energy =     -55.777404071

      Det      Coef        Coefp    Occupancy (Ignoring core)
      ---      ----        ----    --------- --------- -----
       36   -0.813221   -0.813221  22+2000
       71   -0.540466    0.540466  2+22000
        1   -0.108786    0.108786  222+000
      463    0.067010   -0.067010  20+2020
      822    0.037650   -0.037650  2+02002
      113   -0.035648    0.035648  +-220+0
      121   -0.034771    0.034771  +22-00+
      472   -0.029821   -0.029821  2+020-+
      285    0.028722   -0.028722  02+2200
      460   -0.027969   -0.027969  -++2+-0
       74   -0.027945    0.027945  2022+00
      288   -0.027492   -0.027492  +-+2-+0
      813    0.024832   -0.024832  20+20+-
       51   -0.024549    0.024549  22+-00+
      297    0.023986   -0.023986  +202-0+
      145   -0.022862   -0.022862  -2++200
      142    0.022684    0.022684  22+0200
      148   -0.022160   -0.022160  2-++-+0
      282    0.021845    0.021845  +2+-200
      716    0.021136    0.021136  22+0002
       38    0.020255   -0.020255  2202+00
      249    0.020122   -0.020122  20+2200

 ---------------------------------------
    -DIABATIC STATES IN PROTOTYPES-     
 ---------------------------------------

     STATE:    1
 Group Ref#    Coefficients
     1    1    0.989024
     2    2   -0.000262
     3    3   -0.000333

WEIGHT OF LISTED PROTOTYPES:   97.82%

     STATE:    2
 Group Ref#    Coefficients
     1    1   -0.000262
     2    2    0.988305
     3    3    0.000915

WEIGHT OF LISTED PROTOTYPES:   97.67%

     STATE:    3
 Group Ref#    Coefficients
     1    1   -0.000333
     2    2    0.000915
     3    3    0.988643

WEIGHT OF LISTED PROTOTYPES:   97.74%

 --------------------------------------------------
 IN DIRECT MAX. DIABATIZATION FOR GMC-QDPT

 DIRECT MAXIMIZATION (DM) WITHOUT TRUNCATING ADIABATS
 EXPANSIONS INTO THE REFERENCE CONFIGURATION SPACE
 --------------------------------------------------

 -------------------------------------------
 - DM DIABT PT HAMILTONIAN MATRIX ELEMENTS -
 -------------------------------------------
                                            
 --- DIABATIC ENERGIES (DIAGONAL ELEMENT) ---       HARTREE            EV
 STATE #  1'S GMC-PT-LEVEL DIABATIC ENERGY=     -55.991871812       0.000000000
 STATE #  2'S GMC-PT-LEVEL DIABATIC ENERGY=     -55.814779879       4.818916949
 STATE #  3'S GMC-PT-LEVEL DIABATIC ENERGY=     -55.777404059       5.835964801

 --- DIABATIC COUPLINGS (OFF DIAGONAL ELEMENTS)---  HATREE            EV
 STATE #  1 &  2'S GMC-PT-LEVEL COUPLING  =      -0.007412110      -0.201693776
 STATE #  1 &  3'S GMC-PT-LEVEL COUPLING  =       0.023111534       0.628896869
 STATE #  2 &  3'S GMC-PT-LEVEL COUPLING  =      -0.047190999      -1.284132477

 ---------------------------------------
     - ROTATION TO DIABATIC STATES -    
 ---------------------------------------
 ROWS=ADIABATIC, COLUMNS=DIABATIC STATES

             1           2           3

    1    0.9945931   0.0140105  -0.1028995
    2   -0.0454700  -0.8320781  -0.5527916
    3   -0.0933653   0.5544815  -0.8269421

 ---------------------------------------
          - DIABATIC STATES -           
 ---------------------------------------

 State #    1  Energy =     -55.991871812

      Det      Coef        Coefp    Occupancy (Ignoring core)
      ---      ----        ----    --------- --------- -----
        1    0.971804   -0.971804  222+000
      393   -0.073721   -0.073721  202+020
        8   -0.069958    0.069958  2-2+0+0
      717   -0.069403   -0.069403  220+002
        3    0.052534    0.052534  22-++00
      141   -0.051243   -0.051243  22++-00
      386    0.041168   -0.041168  2+2+0-0
       18    0.039318   -0.039318  2-2+00+
      708    0.038138   -0.038138  2-++0+-
       17    0.037997    0.037997  22-+00+
      402    0.037329   -0.037329  2+-+0-+
      736   -0.035902    0.035902  2+2+00-
      215   -0.034863   -0.034863  022+200
      218    0.033646   -0.033646  +-2+-+0
      390    0.033300   -0.033300  -+2++-0
       16    0.032538   -0.032538  222000+
      227   -0.032537   -0.032537  +2-+-0+
      705   -0.032402   -0.032402  -2+++0-
        7   -0.032241   -0.032241  22-+0+0
      351    0.031449    0.031449  22++0-0
       76    0.028791    0.028791  2+2-0+0
      212    0.028237    0.028237  +220200
       51   -0.026619    0.026619  22+-00+
      113   -0.026373    0.026373  +-220+0
        2    0.026056   -0.026056  2220+00
      122    0.024864    0.024864  +2-200+
      179   -0.023040   -0.023040  202+200
      424   -0.022771   -0.022771  +-2++-0
      387   -0.022404    0.022404  2+20+-0
      184   -0.022220   -0.022220  -+2+-+0
      773    0.022141   -0.022141  +2-++0-
      143   -0.021799   -0.021799  220+200
      702    0.021790    0.021790  22+0+0-
      106   -0.021594   -0.021594  +222000
      159    0.021401   -0.021401  -2++-0+

 State #    2  Energy =     -55.814779879

      Det      Coef        Coefp    Occupancy (Ignoring core)
      ---      ----        ----    --------- --------- -----
       71   -0.974452    0.974452  2+22000
      822    0.068773   -0.068773  2+02002
      246   -0.058564   -0.058564  2++2-00
       73    0.058231   -0.058231  2+-2+00
       36    0.047311    0.047311  22+2000
      813    0.041436   -0.041436  20+20+-
      736   -0.040852    0.040852  2+2+00-
       74    0.040084   -0.040084  2022+00
       86    0.039304    0.039304  2+2-00+
      111    0.038090   -0.038090  +22-0+0
      456    0.038059    0.038059  2++20-0
       77   -0.037788    0.037788  2+-20+0
      320    0.034518    0.034518  0+22200
       76    0.033672    0.033672  2+2-0+0
      323   -0.033658    0.033658  +022-+0
      810   -0.033010   -0.033010  -++2+0-
      332   -0.031800    0.031800  ++-2-0+
       88   -0.031421    0.031421  202200+
      180   -0.028720    0.028720  -+2+200
      317    0.028502   -0.028502  ++2-200
      113    0.026927   -0.026927  +-220+0
      177    0.026906   -0.026906  2+20200
      183   -0.025967    0.025967  202+-+0
       99   -0.025529    0.025529  20-20++
        6    0.025011   -0.025011  22200+0
      391    0.024046   -0.024046  2+20020
       38   -0.023216    0.023216  2202+00
      807   -0.023184    0.023184  2++-+0-
      192   -0.022916    0.022916  2+-+-0+
      248    0.022770   -0.022770  2+02200
      122    0.022095    0.022095  +2-200+
      386   -0.021794    0.021794  2+2+0-0
      878    0.021741    0.021741  ++-2+0-
      264    0.021049   -0.021049  -++2-0+
      751    0.020613   -0.020613  2+20002
      529    0.020123    0.020123  +022+-0

 State #    3  Energy =     -55.777404059

      Det      Coef        Coefp    Occupancy (Ignoring core)
      ---      ----        ----    --------- --------- -----
       36   -0.974957   -0.974957  22+2000
      463    0.074281   -0.074281  20+2020
       38   -0.049625    0.049625  2202+00
       71   -0.046536    0.046536  2+22000
       53   -0.041617   -0.041617  2-+200+
      472   -0.041348   -0.041348  2+020-+
      806    0.040148    0.040148  2++200-
      121   -0.039672    0.039672  +22-00+
       51    0.037825   -0.037825  22+-00+
      701   -0.037485   -0.037485  22++00-
      456   -0.036566   -0.036566  2++20-0
      285    0.034742   -0.034742  02+2200
      460   -0.034282   -0.034282  -++2+-0
      288   -0.033835   -0.033835  +-+2-+0
      106   -0.032324   -0.032324  +222000
      297    0.032204   -0.032204  +202-0+
       73    0.030414   -0.030414  2+-2+00
       42    0.029781   -0.029781  22020+0
       43    0.029183    0.029183  2-+20+0
      145   -0.028790   -0.028790  -2++200
      282    0.028731    0.028731  +2+-200
      112   -0.028451   -0.028451  +2-20+0
      142    0.026823    0.026823  22+0200
      123    0.026251   -0.026251  +-2200+
       16   -0.025790    0.025790  222000+
       64    0.025747   -0.025747  2-020++
      249    0.025333   -0.025333  20+2200
      457   -0.024438    0.024438  2++-+-0
       86    0.024327    0.024327  2+2-00+
      148   -0.024224   -0.024224  2-++-+0
      157    0.024016   -0.024016  220+-0+
      716    0.023282    0.023282  22+0002
       52    0.023194   -0.023194  220200+
      494    0.022621   -0.022621  +-+2+-0
      254    0.022309   -0.022309  -++2-+0
      356    0.021184    0.021184  22+0020
      771    0.020564    0.020564  +22+00-

 ---------------------------------------
      - DIABATIC STATES IN CMO -        
 ---------------------------------------

 State #    1  Energy =     -55.991871812

      Det      Coef        Coefp    Occupancy (Ignoring core)
      ---      ----        ----    --------- --------- -----
        1    0.973383   -0.973383  222+000
       36   -0.094370   -0.094370  22+2000
      393   -0.079847   -0.079847  202+020
      717   -0.065766   -0.065766  220+002
       71   -0.053483    0.053483  2+22000
        8   -0.044314    0.044314  2-2+0+0
       17    0.043358    0.043358  22-+00+
      402    0.036767   -0.036767  2+-+0-+
      708    0.035090   -0.035090  2-++0+-
      215   -0.034376   -0.034376  022+200
      390    0.033887   -0.033887  -+2++-0
      218    0.033156   -0.033156  +-2+-+0
      227   -0.029731   -0.029731  +2-+-0+
       76    0.029699    0.029699  2+2-0+0
      705   -0.029673   -0.029673  -2+++0-
        2    0.028908   -0.028908  2220+00
      113   -0.027084    0.027084  +-220+0
      106   -0.026960   -0.026960  +222000
      212    0.026463    0.026463  +220200
      179   -0.025234   -0.025234  202+200
       51   -0.024908    0.024908  22+-00+
      122    0.024064    0.024064  +2-200+
      387   -0.023358    0.023358  2+20+-0
      424   -0.022946   -0.022946  +-2++-0
      184   -0.022504   -0.022504  -+2+-+0
      143   -0.022308   -0.022308  220+200
      702    0.020080    0.020080  22+0+0-

 State #    2  Energy =     -55.814779879

      Det      Coef        Coefp    Occupancy (Ignoring core)
      ---      ----        ----    --------- --------- -----
       71   -0.821180    0.821180  2+22000
       36    0.541477    0.541477  22+2000
      822    0.052103   -0.052103  2+02002
      463   -0.043152    0.043152  20+2020
      112   -0.032570   -0.032570  +2-20+0
      813    0.031455   -0.031455  20+20+-
      323   -0.028310    0.028310  +022-+0
      320    0.028140    0.028140  0+22200
      111    0.027573   -0.027573  +22-0+0
      121    0.026133   -0.026133  +22-00+
      253    0.024382    0.024382  20+2-+0
      332   -0.024312    0.024312  ++-2-0+
      472    0.023902    0.023902  2+020-+
      810   -0.023507   -0.023507  -++2+0-
       73    0.023057   -0.023057  2+-2+00
      177    0.023053   -0.023053  2+20200
      248    0.023045   -0.023045  2+02200
      183   -0.022349    0.022349  202+-+0
      180   -0.022296    0.022296  -+2+200
      317    0.022118   -0.022118  ++2-200
        6    0.021718   -0.021718  22200+0
       86    0.021474    0.021474  2+2-00+
       39   -0.021239   -0.021239  2-+2+00
       99   -0.020066    0.020066  20-20++

 State #    3  Energy =     -55.777404059

      Det      Coef        Coefp    Occupancy (Ignoring core)
      ---      ----        ----    --------- --------- -----
       36   -0.813221   -0.813221  22+2000
       71   -0.540465    0.540465  2+22000
        1   -0.108786    0.108786  222+000
      463    0.067010   -0.067010  20+2020
      822    0.037650   -0.037650  2+02002
      113   -0.035648    0.035648  +-220+0
      121   -0.034771    0.034771  +22-00+
      472   -0.029821   -0.029821  2+020-+
      285    0.028722   -0.028722  02+2200
      460   -0.027969   -0.027969  -++2+-0
       74   -0.027945    0.027945  2022+00
      288   -0.027492   -0.027492  +-+2-+0
      813    0.024832   -0.024832  20+20+-
       51   -0.024549    0.024549  22+-00+
      297    0.023986   -0.023986  +202-0+
      145   -0.022862   -0.022862  -2++200
      142    0.022684    0.022684  22+0200
      148   -0.022160   -0.022160  2-++-+0
      282    0.021845    0.021845  +2+-200
      716    0.021136    0.021136  22+0002
       38    0.020255   -0.020255  2202+00
      249    0.020122   -0.020122  20+2200

 ---------------------------------------
    -DIABATIC STATES IN PROTOTYPES-     
 ---------------------------------------

     STATE:    1
 Group Ref#    Coefficients
     1    1    0.989024
     2    2   -0.000262
     3    3   -0.000333

WEIGHT OF LISTED PROTOTYPES:   97.82%

     STATE:    2
 Group Ref#    Coefficients
     1    1   -0.000262
     2    2    0.988305
     3    3    0.000915

WEIGHT OF LISTED PROTOTYPES:   97.67%

     STATE:    3
 Group Ref#    Coefficients
     1    1   -0.000334
     2    2    0.000915
     3    3    0.988643

WEIGHT OF LISTED PROTOTYPES:   97.74%

     DIRECT MAX. DIABATIZATION FINISHED    
 CPU     0: STEP CPU TIME=     0.24 TOTAL CPU TIME=         12.3 (      0.2 MIN)
 TOTAL WALL CLOCK TIME=         12.3 SECONDS, CPU UTILIZATION IS    99.92%

DIABATS FOR SPIN-ORBIT CALCULATION ARE READY

TRANSITION DIPOLES BETWEEN ADIABATS (in A.U.):

STATE PAIR      X         Y         Z
    1    1  0.059860 -0.167002  0.764056
    2    1  0.024159  0.020641 -0.024730
    2    2 -0.056168  0.034724  0.256505
    3    1  0.037792 -0.051118 -0.050131
    3    2  0.190020  0.059579 -0.000591
    3    3  0.182246 -0.435170  0.249110


TRANSITION DIPOLES BETWEEN DIABATS (in A.U.):

STATE PAIR      X         Y         Z
    1    1  0.053097 -0.160790  0.770060
    2    1  0.000029 -0.020577  0.000325
    2    2 -0.158160 -0.166036  0.254674
    3    1 -0.020404  0.019981  0.001662
    3    2 -0.037693  0.243598  0.003948
    3    3  0.291002 -0.240622  0.244937

TRANSITION DIPOLES BETWEEN DIRECT MAX. DIABATS (in A.U.):

STATE PAIR      X         Y         Z
    1    1  0.053097 -0.160790  0.770060
    2    1  0.000029 -0.020577  0.000325
    2    2 -0.158160 -0.166036  0.254674
    3    1 -0.020404  0.019981  0.001662
    3    2 -0.037693  0.243598  0.003948
    3    3  0.291002 -0.240622  0.244937
 No $TRANST Group Found.
 Quit without doing spin-orbit coupling
 ..... DONE WITH MP2 ENERGY .....
 CPU     0: STEP CPU TIME=     0.01 TOTAL CPU TIME=         12.3 (      0.2 MIN)
 TOTAL WALL CLOCK TIME=         12.3 SECONDS, CPU UTILIZATION IS    99.92%
            100000000  WORDS OF DYNAMIC MEMORY USED
 EXECUTION OF GAMESS TERMINATED NORMALLY Wed Nov 16 19:01:14 2022
 DDI: 715512 bytes (0.7 MB / 0 MWords) used by master data server.

 ----------------------------------------
 CPU timing information for all processes
 ========================================
 0: 11.980 + 0.328 = 12.308
 ----------------------------------------
Note: The following floating-point exceptions are signalling: IEEE_DENORMAL
 ddikick.x: exited gracefully.
unset echo
----- accounting info -----
Files used on the master node io002 were:
-rw-r--r-- 1 bsonghao nooijen   20713 Nov 16 19:01 /scratch/bsonghao/nh3_diabatization_2d_at_mode_7_8_dist-0.3_0.1.F05
-rw-r--r-- 1 bsonghao nooijen  363520 Nov 16 19:01 /scratch/bsonghao/nh3_diabatization_2d_at_mode_7_8_dist-0.3_0.1.F09
-rw-r--r-- 1 bsonghao nooijen 1995920 Nov 16 19:01 /scratch/bsonghao/nh3_diabatization_2d_at_mode_7_8_dist-0.3_0.1.F10
-rw-r--r-- 1 bsonghao nooijen  131264 Nov 16 19:01 /scratch/bsonghao/nh3_diabatization_2d_at_mode_7_8_dist-0.3_0.1.F13
-rw-r--r-- 1 bsonghao nooijen  180312 Nov 16 19:01 /scratch/bsonghao/nh3_diabatization_2d_at_mode_7_8_dist-0.3_0.1.F15
-rw-r--r-- 1 bsonghao nooijen       0 Nov 16 19:01 /scratch/bsonghao/nh3_diabatization_2d_at_mode_7_8_dist-0.3_0.1.F16
-rw-r--r-- 1 bsonghao nooijen    9808 Nov 16 19:01 /scratch/bsonghao/nh3_diabatization_2d_at_mode_7_8_dist-0.3_0.1.F70
-rw-r--r-- 1 bsonghao nooijen    9808 Nov 16 19:01 /scratch/bsonghao/nh3_diabatization_2d_at_mode_7_8_dist-0.3_0.1.F71
-rw-r--r-- 1 bsonghao nooijen   19608 Nov 16 19:01 /scratch/bsonghao/nh3_diabatization_2d_at_mode_7_8_dist-0.3_0.1.F72
-rw-r--r-- 1 bsonghao nooijen   19608 Nov 16 19:01 /scratch/bsonghao/nh3_diabatization_2d_at_mode_7_8_dist-0.3_0.1.F73
-rw-r--r-- 1 bsonghao nooijen 1920824 Nov 16 19:01 /scratch/bsonghao/nh3_diabatization_2d_at_mode_7_8_dist-0.3_0.1.F74
-rw-r--r-- 1 bsonghao nooijen       0 Nov 16 19:01 /scratch/bsonghao/nh3_diabatization_2d_at_mode_7_8_dist-0.3_0.1.F75
-rw-r--r-- 1 bsonghao nooijen   58848 Nov 16 19:01 /scratch/bsonghao/nh3_diabatization_2d_at_mode_7_8_dist-0.3_0.1.F76
-rw-r--r-- 1 bsonghao nooijen       0 Nov 16 19:01 /scratch/bsonghao/nh3_diabatization_2d_at_mode_7_8_dist-0.3_0.1.F77
-rw-r--r-- 1 bsonghao nooijen    1864 Nov 16 19:01 /scratch/bsonghao/nh3_diabatization_2d_at_mode_7_8_dist-0.3_0.1.F78
-rw-r--r-- 1 bsonghao nooijen   39208 Nov 16 19:01 /scratch/bsonghao/nh3_diabatization_2d_at_mode_7_8_dist-0.3_0.1.F79
-rw-r--r-- 1 bsonghao nooijen     104 Nov 16 19:01 /scratch/bsonghao/nh3_diabatization_2d_at_mode_7_8_dist-0.3_0.1.F80
-rw-r--r-- 1 bsonghao nooijen   13472 Nov 16 19:01 /scratch/bsonghao/nh3_diabatization_2d_at_mode_7_8_dist-0.3_0.1.F81
-rw-r--r-- 1 bsonghao nooijen      16 Nov 16 19:01 /scratch/bsonghao/nh3_diabatization_2d_at_mode_7_8_dist-0.3_0.1.F82
-rw-r--r-- 1 bsonghao nooijen   19216 Nov 16 19:01 /scratch/bsonghao/nh3_diabatization_2d_at_mode_7_8_dist-0.3_0.1.F83
-rw-r--r-- 1 bsonghao nooijen   29712 Nov 16 19:01 /scratch/bsonghao/nh3_diabatization_2d_at_mode_7_8_dist-0.3_0.1.F84
-rw-r--r-- 1 bsonghao nooijen  401576 Nov 16 19:01 /scratch/bsonghao/nh3_diabatization_2d_at_mode_7_8_dist-0.3_0.1.F85
-rw-r--r-- 1 bsonghao nooijen  903672 Nov 16 19:01 /scratch/bsonghao/nh3_diabatization_2d_at_mode_7_8_dist-0.3_0.1.F86
-rw-r--r-- 1 bsonghao nooijen     656 Nov 16 19:01 /scratch/bsonghao/nh3_diabatization_2d_at_mode_7_8_dist-0.3_0.1.F87
-rw-r--r-- 1 bsonghao nooijen   26064 Nov 16 19:01 /scratch/bsonghao/nh3_diabatization_2d_at_mode_7_8_dist-0.3_0.1.F88
-rw-r--r-- 1 bsonghao nooijen     240 Nov 16 19:01 /scratch/bsonghao/nh3_diabatization_2d_at_mode_7_8_dist-0.3_0.1.F89
-rw-r--r-- 1 bsonghao nooijen       0 Nov 16 19:01 /scratch/bsonghao/nh3_diabatization_2d_at_mode_7_8_dist-0.3_0.1.F90
-rw-r--r-- 1 bsonghao nooijen   13760 Nov 16 19:01 /scratch/bsonghao/nh3_diabatization_2d_at_mode_7_8_dist-0.3_0.1.F91
-rw-r--r-- 1 bsonghao nooijen   22776 Nov 16 19:01 /scratch/bsonghao/nh3_diabatization_2d_at_mode_7_8_dist-0.3_0.1.F92
-rw-r--r-- 1 bsonghao nooijen   23168 Nov 16 19:01 /scratch/bsonghao/nh3_diabatization_2d_at_mode_7_8_dist-0.3_0.1.F93
-rw-r--r-- 1 bsonghao nooijen   22776 Nov 16 19:01 /scratch/bsonghao/nh3_diabatization_2d_at_mode_7_8_dist-0.3_0.1.F94
-rw-r--r-- 1 bsonghao nooijen   13760 Nov 16 19:01 /scratch/bsonghao/nh3_diabatization_2d_at_mode_7_8_dist-0.3_0.1.F95
-rw-r--r-- 1 bsonghao nooijen   29440 Nov 16 19:01 /scratch/bsonghao/nh3_diabatization_2d_at_mode_7_8_dist-0.3_0.1.F96
-rw-r--r-- 1 bsonghao nooijen    1184 Nov 16 19:01 /scratch/bsonghao/nh3_diabatization_2d_at_mode_7_8_dist-0.3_0.1.F97
-rw-r--r-- 1 bsonghao nooijen    9808 Nov 16 19:01 /scratch/bsonghao/nh3_diabatization_2d_at_mode_7_8_dist-0.3_0.1.F98
-rw-r--r-- 1 bsonghao nooijen   30264 Nov 16 19:01 /scratch/bsonghao/nh3_diabatization_2d_at_mode_7_8_dist-0.3_0.1.F99
ls: No match.
ls: No match.
ls: No match.
Wed 16 Nov 2022 07:01:17 PM EST
0.286u 0.044s 0:15.67 2.0%	0+0k 48+224io 0pf+0w
