----- GAMESS execution script 'rungms' -----
This job is running on host io002
under operating system Linux at Wed 16 Nov 2022 07:08:38 PM EST
Available scratch disk space (Kbyte units) at beginning of the job is
Filesystem       1K-blocks       Used   Available Use% Mounted on
/dev/sdc1      15378471580 3278917120 11318349060  23% /scratch
GAMESS temporary binary files will be written to /scratch/bsonghao
GAMESS supplementary output files will be written to /home/bsonghao/.gamess_ascii_files/267638
Copying input file nh3_diabatization_2d_at_mode_7_8_dist-0.2_0.1.inp to your run's scratch directory...
cp nh3_diabatization_2d_at_mode_7_8_dist-0.2_0.1.inp /scratch/bsonghao/nh3_diabatization_2d_at_mode_7_8_dist-0.2_0.1.F05
unset echo
/home/bjb2chen/gamess/ddikick.x /home/bjb2chen/gamess/gamess.00.x nh3_diabatization_2d_at_mode_7_8_dist-0.2_0.1 -ddi 1 1 io002 -scr /scratch/bsonghao

 Distributed Data Interface kickoff program.
 Initiating 1 compute processes on 1 nodes to run the following command:
 /home/bjb2chen/gamess/gamess.00.x nh3_diabatization_2d_at_mode_7_8_dist-0.2_0.1 

          ******************************************************
          *         GAMESS VERSION = 02 AUG 2018 (R2)         *
          *             FROM IOWA STATE UNIVERSITY             *
          * M.W.SCHMIDT, K.K.BALDRIDGE, J.A.BOATZ, S.T.ELBERT, *
          *   M.S.GORDON, J.H.JENSEN, S.KOSEKI, N.MATSUNAGA,   *
          *          K.A.NGUYEN, S.J.SU, T.L.WINDUS,           *
          *       TOGETHER WITH M.DUPUIS, J.A.MONTGOMERY       *
          *         J.COMPUT.CHEM.  14, 1347-1363(1993)        *
          **************** 64 BIT LINUX VERSION ****************

  SINCE 1993, STUDENTS AND POSTDOCS WORKING AT IOWA STATE UNIVERSITY
  AND ALSO IN THEIR VARIOUS JOBS AFTER LEAVING ISU HAVE MADE IMPORTANT
  CONTRIBUTIONS TO THE CODE:
     IVANA ADAMOVIC, CHRISTINE AIKENS, YURI ALEXEEV, POOJA ARORA,
     ANDREY ASADCHEV, ROB BELL, PRADIPTA BANDYOPADHYAY, JONATHAN BENTZ,
     BRETT BODE, KURT BRORSEN, CALEB CARLIN, GALINA CHABAN, WEI CHEN,
     CHEOL HO CHOI, PAUL DAY, ALBERT DEFUSCO, NUWAN DESILVA, TIM DUDLEY,
     DMITRI FEDOROV, ALEX FINDLATER, GRAHAM FLETCHER, MARK FREITAG,
     KURT GLAESEMANN, ANASTASIA GUININA,
     DAN KEMP, GRANT MERRILL, NORIYUKI MINEZAWA, JONATHAN MULLIN,
     TAKESHI NAGATA, SEAN NEDD, HEATHER NETZLOFF, BOSILJKA NJEGIC, RYAN OLSON,
     MIKE PAK, BUU PHAM,
     SPENCER PRUITT, LUKE ROSKOP, JIM SHOEMAKER, LYUDMILA SLIPCHENKO,
     TONY SMITH, SAROM SOK LEANG, JIE SONG, TETSUYA TAKETSUGU, SIMON WEBB,
     PENG XU, SOOHAENG YOO, FEDERICO ZAHARIEV

  ADDITIONAL CODE HAS BEEN PROVIDED BY COLLABORATORS IN OTHER GROUPS:
     IOWA STATE UNIVERSITY:
          JOE IVANIC, AARON WEST, LAIMUTIS BYTAUTAS, KLAUS RUEDENBERG
     UNIVERSITY OF TOKYO: KIMIHIKO HIRAO, TAKAHITO NAKAJIMA,
          TAKAO TSUNEDA, MUNEAKI KAMIYA, SUSUMU YANAGISAWA,
          KIYOSHI YAGI, MAHITO CHIBA, SEIKEN TOKURA, NAOAKI KAWAKAMI
     UNIVERSITY OF AARHUS: FRANK JENSEN
     UNIVERSITY OF IOWA: VISVALDAS KAIRYS, HUI LI
     NATIONAL INST. OF STANDARDS AND TECHNOLOGY: WALT STEVENS, DAVID GARMER
     UNIVERSITY OF PISA: BENEDETTA MENNUCCI, JACOPO TOMASI
     UNIVERSITY OF MEMPHIS: HENRY KURTZ, PRAKASHAN KORAMBATH
     UNIVERSITY OF ALBERTA: TOBY ZENG, MARIUSZ KLOBUKOWSKI
     UNIVERSITY OF NEW ENGLAND: MARK SPACKMAN
     MIE UNIVERSITY: HIROAKI UMEDA
     NAT. INST. OF ADVANCED INDUSTRIAL SCIENCE AND TECHNOLOGY: KAZUO KITAURA
     MICHIGAN STATE UNIVERSITY:
          KAROL KOWALSKI, MARTA WLOCH, JEFFREY GOUR, JESSE LUTZ,
          WEI LI, JUN SHEN, J. EMILIANO DEUSTUA, PIOTR PIECUCH
     UNIVERSITY OF MINNESOTA:
          YINAN SHU
     UNIVERSITY OF SILESIA: MONIKA MUSIAL, STANISLAW KUCHARSKI
     FACULTES UNIVERSITAIRES NOTRE-DAME DE LA PAIX:
          OLIVIER QUINET, BENOIT CHAMPAGNE
     UNIVERSITY OF CALIFORNIA - SANTA BARBARA: BERNARD KIRTMAN
     INSTITUTE FOR MOLECULAR SCIENCE:
          KAZUYA ISHIMURA, MICHIO KATOUDA, AND SHIGERU NAGASE
     UNIVERSITY OF NOTRE DAME: ANNA POMOGAEVA, DAN CHIPMAN
     KYUSHU UNIVERSITY:
          HARUYUKI NAKANO,
          FENG LONG GU, JACEK KORCHOWIEC, MARCIN MAKOWSKI, AND YURIKO AOKI,
          HIROTOSHI MORI AND EISAKU MIYOSHI
     PENNSYLVANIA STATE UNIVERSITY:
          TZVETELIN IORDANOV, CHET SWALINA, JONATHAN SKONE,
          SHARON HAMMES-SCHIFFER
     WASEDA UNIVERSITY:
          MASATO KOBAYASHI, TOMOKO AKAMA, TSUGUKI TOUMA,
          TAKESHI YOSHIKAWA, YASUHIRO IKABATA, JUNJI SEINO,
          YUYA NAKAJIMA, HIROMI NAKAI
     NANJING UNIVERSITY: SHUHUA LI
     UNIVERSITY OF NEBRASKA:
          PEIFENG SU, DEJUN SI, NANDUN THELLAMUREGE, YALI WANG, HUI LI
     UNIVERSITY OF ZURICH: ROBERTO PEVERATI, KIM BALDRIDGE
     N. COPERNICUS UNIVERSITY AND JACKSON STATE UNIVERSITY:
          MARIA BARYSZ
     UNIVERSITY OF COPENHAGEN: Jimmy Kromann, CASPER STEINMANN
     TOKYO INSTITUTE OF TECHNOLOGY: HIROYA NAKATA
     NAGOYA UNIVERSITY: YOSHIO NISHIMOTO, STEPHAN IRLE
     MOSCOW STATE UNIVERSITY: VLADIMIR MIRONOV

 EXECUTION OF GAMESS BEGUN Wed Nov 16 19:08:38 2022

            ECHO OF THE FIRST FEW INPUT CARDS -
 INPUT CARD> $system kdiag=3 mwords=100 memddi=1000 parall=.t. $end                         
 INPUT CARD> $contrl runtyp=energy ispher=1 $end                                            
 INPUT CARD> $contrl icut=9 itol=20 inttyp=rysquad qmttol=1.0d-05 nosym=1 $end              
 INPUT CARD> $scf    npunch=2 conv=1.0d-06 dirscf=.t.      $end                             
 INPUT CARD> $contrl scftyp=mcscf  mult=2 maxit=200 icharg=1 mplevl=2 $end                  
 INPUT CARD> $guess  guess=moread norb=29 purify=.t. $end                                   
 INPUT CARD> $basis  gbasis=ccd $end                                                        
 INPUT CARD> $mcscf  cistep=gmcci fullnr=.t. finci=mos                                      
 INPUT CARD>         acurcy=1.d-6 maxit=100 $end                                            
 INPUT CARD> $trans  dirtrf=.t. $end                                                        
 INPUT CARD> $mrmp   mrpt=gmcpt rdvecs=.f. $end                                             
 INPUT CARD> $gmcpt  nmofzc=0 nmodoc=1 nmoact=7 nelact=7 stsym(1)=A                         
 INPUT CARD>         reftyp=ormas nspace=1 mstart(1)=2 mine(1)=7 maxe(1)=7                  
 INPUT CARD>         kstate(1)=1,1,1                                                        
 INPUT CARD>         wstate(1)=1,1,1                                                        
 INPUT CARD>         iwgt=0 thrwgt=-1.0 krot=.f. kszdoe=.f. knospn=.f.                      
 INPUT CARD>         thrde=-1.0 edshft=0.02 $end                                            
 INPUT CARD> $data                                                                          
 INPUT CARD> NH3+ 3 states calculation at NH3 structure.                                    
 INPUT CARD> c1                                                                             
 INPUT CARD>N 7.0 -0.006228917999999998 0.012457805999999998 -0.1693807382                  
 INPUT CARD>H 1.0 -0.490838819 0.8306052788 0.19754031510000003                             
 INPUT CARD>H 1.0 -0.33798818700000005 -0.8577592178000001 0.2889832631                     
 INPUT CARD>H 1.0 0.915379498 -0.14595148599999996 0.2828579331                             
 INPUT CARD>$end                                                                            
 INPUT CARD>--- OPTIMIZED RHF      MO-S --- GENERATED AT Mon Nov 14 16:47:08 2022           
 INPUT CARD>E=      -56.3825050291, E(NUC)=   11.8429239490                                 
 INPUT CARD> $VEC                                                                           
 INPUT CARD> 1  1-1.00134066E+00-2.25158504E-03 3.44925845E-03 0.00000000E+00 0.00000000E+00
 INPUT CARD> 1  2-2.13170927E-03 0.00000000E+00 0.00000000E+00 6.57129898E-04-6.87950443E-05
 INPUT CARD> 1  3-6.87950443E-05 1.37590089E-04 0.00000000E+00 0.00000000E+00 0.00000000E+00
 INPUT CARD> 1  4 3.25502815E-04-4.84772356E-04 3.62525460E-04-6.27912517E-04-3.45956485E-04
 INPUT CARD> 1  5 3.25502815E-04-4.84772356E-04 3.62525460E-04 6.27912517E-04-3.45956485E-04
 INPUT CARD> 1  6 3.25502815E-04-4.84772356E-04-7.25050921E-04 0.00000000E+00-3.45956485E-04
 INPUT CARD> 2  1 1.31286642E-02-4.05911371E-01-2.82090992E-01 0.00000000E+00 0.00000000E+00
 INPUT CARD> 2  2-7.71489043E-02 0.00000000E+00 0.00000000E+00 9.73717494E-03 6.62450916E-04
 INPUT CARD> 2  3 6.62450916E-04-1.32490183E-03 0.00000000E+00 0.00000000E+00 0.00000000E+00
 INPUT CARD> 2  4-1.96090317E-01-1.96656153E-02-1.74855877E-02 3.02859263E-02 8.68214399E-03
 INPUT CARD> 2  5-1.96090317E-01-1.96656153E-02-1.74855877E-02-3.02859263E-02 8.68214399E-03
 INPUT CARD> 2  6-1.96090317E-01-1.96656153E-02 3.49711754E-02 0.00000000E+00 8.68214399E-03
 INPUT CARD> 3  1 0.00000000E+00 0.00000000E+00 0.00000000E+00 4.48608762E-01 0.00000000E+00
 INPUT CARD> 3  2 0.00000000E+00 2.18692520E-01 0.00000000E+00 0.00000000E+00 1.30198027E-02
 INPUT CARD> 3  3-1.30198027E-02 0.00000000E+00 0.00000000E+00 2.71832968E-02 0.00000000E+00
 INPUT CARD> 3  4-1.85332726E-01-7.03958951E-02 8.47929477E-03 1.95242443E-02 8.32835058E-03
 INPUT CARD> 3  5-1.85332726E-01-7.03958951E-02 8.47929477E-03-1.95242443E-02 8.32835058E-03
 INPUT CARD> 3  6 3.70665453E-01 1.40791790E-01-2.53376884E-02 0.00000000E+00-1.66567012E-02
 INPUT CARD> 4  1 0.00000000E+00 0.00000000E+00 0.00000000E+00 0.00000000E+00 4.48608762E-01
 INPUT CARD> 4  2 0.00000000E+00 0.00000000E+00 2.18692520E-01 0.00000000E+00 0.00000000E+00
 INPUT CARD> 4  3 0.00000000E+00 0.00000000E+00-1.50339731E-02 0.00000000E+00 2.71832968E-02
 INPUT CARD> 4  4 3.21005698E-01 1.21929267E-01 1.95242443E-02-1.40653607E-02-1.44251263E-02
  100000000 WORDS OF MEMORY AVAILABLE

     BASIS OPTIONS
     -------------
     GBASIS=CCD          IGAUSS=       0      POLAR=NONE    
     NDFUNC=       0     NFFUNC=       0     DIFFSP=       F
     NPFUNC=       0      DIFFS=       F     BASNAM=        


     RUN TITLE
     ---------
  NH3+ 3 states calculation at NH3 structure.                                    

 THE POINT GROUP OF THE MOLECULE IS C1      
 THE ORDER OF THE PRINCIPAL AXIS IS     0

 ATOM      ATOMIC                      COORDINATES (BOHR)
           CHARGE         X                   Y                   Z
 N           7.0    -0.0117709482        0.0235418397       -0.3200831828
 H           1.0    -0.9275508720        1.5696163809        0.3732970671
 H           1.0    -0.6387050605       -1.6209298851        0.5460991823
 H           1.0     1.7298164260       -0.2758083160        0.5345239870

          INTERNUCLEAR DISTANCES (ANGS.)
          ------------------------------

                1 N          2 H          3 H          4 H     

   1 N       0.0000000    1.0192365 *  1.0379978 *  1.0387374 *
   2 H       1.0192365 *  0.0000000    1.6977337 *  1.7141739 *
   3 H       1.0379978 *  1.6977337 *  0.0000000    1.4414015 *
   4 H       1.0387374 *  1.7141739 *  1.4414015 *  0.0000000  

  * ... LESS THAN  3.000


     ATOMIC BASIS SET
     ----------------
 THE CONTRACTED PRIMITIVE FUNCTIONS HAVE BEEN UNNORMALIZED
 THE CONTRACTED BASIS FUNCTIONS ARE NOW NORMALIZED TO UNITY

  SHELL TYPE  PRIMITIVE        EXPONENT          CONTRACTION COEFFICIENT(S)

 N         

      1   S       1          9046.0000000    0.000699617413
      1   S       2          1357.0000000    0.005386054630
      1   S       3           309.3000000    0.027391021189
      1   S       4            87.7300000    0.103150591982
      1   S       5            28.5600000    0.278570663317
      1   S       6            10.2100000    0.448294849454
      1   S       7             3.8380000    0.278085928395
      1   S       8             0.7466000    0.015431561233

      2   S       9          9046.0000000   -0.000304990096
      2   S      10          1357.0000000   -0.002408026379
      2   S      11           309.3000000   -0.011944448725
      2   S      12            87.7300000   -0.048925992909
      2   S      13            28.5600000   -0.134472724725
      2   S      14            10.2100000   -0.315112577700
      2   S      15             3.8380000   -0.242857832550
      2   S      16             0.7466000    1.094382206854

      3   S      17             0.2248000    1.000000000000

      4   P      18            13.5500000    0.058905676772
      4   P      19             2.9170000    0.320461106714
      4   P      20             0.7973000    0.753042061792

      5   P      21             0.2185000    1.000000000000

      6   D      22             0.8170000    1.000000000000

 H         

      7   S      23            13.0100000    0.033498726390
      7   S      24             1.9620000    0.234800801174
      7   S      25             0.4446000    0.813682957883

      8   S      26             0.1220000    1.000000000000

      9   P      27             0.7270000    1.000000000000

 H         

     10   S      28            13.0100000    0.033498726390
     10   S      29             1.9620000    0.234800801174
     10   S      30             0.4446000    0.813682957883

     11   S      31             0.1220000    1.000000000000

     12   P      32             0.7270000    1.000000000000

 H         

     13   S      33            13.0100000    0.033498726390
     13   S      34             1.9620000    0.234800801174
     13   S      35             0.4446000    0.813682957883

     14   S      36             0.1220000    1.000000000000

     15   P      37             0.7270000    1.000000000000

 TOTAL NUMBER OF BASIS SET SHELLS             =   15
 NUMBER OF CARTESIAN GAUSSIAN BASIS FUNCTIONS =   30
 NOTE: THIS RUN WILL RESTRICT THE MO VARIATION SPACE TO SPHERICAL HARMONICS.
 THE NUMBER OF ORBITALS KEPT IN THE VARIATIONAL SPACE WILL BE PRINTED LATER.
 NUMBER OF ELECTRONS                          =    9
 CHARGE OF MOLECULE                           =    1
 SPIN MULTIPLICITY                            =    2
 NUMBER OF OCCUPIED ORBITALS (ALPHA)          =    5
 NUMBER OF OCCUPIED ORBITALS (BETA )          =    4
 TOTAL NUMBER OF ATOMS                        =    4
 THE NUCLEAR REPULSION ENERGY IS       11.7565984533

     $CONTRL OPTIONS
     ---------------
 SCFTYP=MCSCF        RUNTYP=ENERGY       EXETYP=RUN     
 MPLEVL=       2     CITYP =NONE         CCTYP =NONE         VBTYP =NONE    
 DFTTYP=NONE         TDDFT =NONE    
 MULT  =       2     ICHARG=       1     NZVAR =       0     COORD =UNIQUE  
 PP    =NONE         RELWFN=NONE         LOCAL =NONE         NUMGRD=       F
 ISPHER=       1     NOSYM =       1     MAXIT =     200     UNITS =ANGS    
 PLTORB=       F     MOLPLT=       F     AIMPAC=       F     FRIEND=        
 NPRINT=       7     IREST =       0     GEOM  =INPUT   
 NORMF =       0     NORMP =       0     ITOL  =      20     ICUT  =       9
 INTTYP=RYSQUAD      GRDTYP=BEST         QMTTOL= 1.0E-05

     $SYSTEM OPTIONS
     ---------------
  REPLICATED MEMORY=   100000000 WORDS (ON EVERY NODE).
 DISTRIBUTED MEMDDI=        1000 MILLION WORDS IN AGGREGATE,
 MEMDDI DISTRIBUTED OVER   1 PROCESSORS IS  1000000000 WORDS/PROCESSOR.
 TOTAL MEMORY REQUESTED ON EACH PROCESSOR=  1100000000 WORDS.
 TIMLIM=      525600.00 MINUTES, OR     365.0 DAYS.
 PARALL= T  BALTYP=  DLB     KDIAG=    3  COREFL= F
 MXSEQ2=     300 MXSEQ3=     150  mem10=         0

          ----------------
          PROPERTIES INPUT
          ----------------

     MOMENTS            FIELD           POTENTIAL          DENSITY
 IEMOM =       1   IEFLD =       0   IEPOT =       0   IEDEN =       0
 WHERE =COMASS     WHERE =NUCLEI     WHERE =NUCLEI     WHERE =NUCLEI  
 OUTPUT=BOTH       OUTPUT=BOTH       OUTPUT=BOTH       OUTPUT=BOTH    
 IEMINT=       0   IEFINT=       0                     IEDINT=       0
                                                       MORB  =       0

     -------------------------------
     INTEGRAL TRANSFORMATION OPTIONS
     -------------------------------
     NWORD  =            0
     CUTOFF = 1.0E-09     MPTRAN =       0
     DIRTRF =       T     AOINTS =DUP     

          ----------------------
          MCSCF INPUT PARAMETERS
          ----------------------
 CONVERGER SELECTION: FOCAS = F  SOSCF = F  FULLNR = T  QUD = F  JACOBI = F
 SECULAR EQUATION METHOD CISTEP = GMCCI   
 --- GENERAL INPUT OPTIONS:
 MAXIT =     100  MICIT =       1  ACURCY= 1.000E-06
 DAMP  =   0.000  CANONC=       T  ENGTOL= 1.000E-10
 EKT   =       F  NPUNCH=       2  NWORD =         0
 REGENERATE CI AFTER CONVERGENCE = NONE    
 DIABATIZATION AFTER CONVERGENCE =        F
 --- INPUT FOR FULLNR CONVERGER:
 METHOD=DM2       FORS  =       F  DROPC =       T
 LINSER=       F  FCORE =       F  NORB  =      30

          ----------------------
          INTEGRAL INPUT OPTIONS
          ----------------------
 NOPK  =       1 NORDER=       0 SCHWRZ=       T

 ------------------------------------------
 MULTIREFERENCE PERTURBATION THEORY CONTROL
 ------------------------------------------
 MRPT=GMCPT    READ CONVERGED MCSCF VECTORS= F


     ------------------------------------------
     THE POINT GROUP IS C1 , NAXIS= 1, ORDER= 1
     ------------------------------------------

 -- VARIATIONAL SPACE WILL BE RESTRICTED TO PURE SPHERICAL HARMONICS ONLY --
 AFTER EXCLUDING CONTAMINANT COMBINATIONS FROM THE CARTESIAN GAUSSIAN BASIS
 SET, THE NUMBER OF SPHERICAL HARMONICS KEPT IN THE VARIATION SPACE IS   29

     DIMENSIONS OF THE SYMMETRY SUBSPACES ARE
 A   =   29

 ..... DONE SETTING UP THE RUN .....
 CPU     0: STEP CPU TIME=     0.03 TOTAL CPU TIME=          0.0 (      0.0 MIN)
 TOTAL WALL CLOCK TIME=          0.0 SECONDS, CPU UTILIZATION IS    75.00%

          ********************
          1 ELECTRON INTEGRALS
          ********************
 TIME TO DO   DIPOLE INTEGRALS=      0.00
 ...... END OF ONE-ELECTRON INTEGRALS ......
 CPU     0: STEP CPU TIME=     0.00 TOTAL CPU TIME=          0.0 (      0.0 MIN)
 TOTAL WALL CLOCK TIME=          0.0 SECONDS, CPU UTILIZATION IS    75.00%

          -------------
          GUESS OPTIONS
          -------------
          GUESS =MOREAD            NORB  =      29          NORDER=       0
          MIX   =       F          PRTMO =       F          PUNMO =       F
          TOLZ  = 1.0E-08          TOLE  = 1.0E-05
          SYMDEN=       F          PURIFY=       T

 INITIAL GUESS ORBITALS GENERATED BY MOREAD   ROUTINE.

 STATISTICS FOR GENERATION OF SYMMETRY ORBITAL -Q- MATRIX
 NUMBER OF CARTESIAN ATOMIC ORBITALS=         30
 NUMBER OF SPHERICAL CONTAMINANTS DROPPED=     1
 NUMBER OF LINEARLY DEPENDENT MOS DROPPED=     0
 TOTAL NUMBER OF MOS IN VARIATION SPACE=      29
 ORBITAL PURIFICATION WILL OCCUR

 SYMMETRIES FOR INITIAL GUESS ORBITALS FOLLOW.   BOTH SET(S).
     5 ORBITALS ARE OCCUPIED (    1 CORE ORBITALS).
     1=A        2=A        3=A        4=A        5=A        6=A        7=A   
     8=A        9=A       10=A       11=A       12=A       13=A       14=A   
    15=A       16=A       17=A       18=A       19=A       20=A       21=A   
    22=A       23=A       24=A       25=A       26=A       27=A       28=A   
    29=A   
 ...... END OF INITIAL ORBITAL SELECTION ......
 CPU     0: STEP CPU TIME=     0.01 TOTAL CPU TIME=          0.0 (      0.0 MIN)
 TOTAL WALL CLOCK TIME=          0.1 SECONDS, CPU UTILIZATION IS    80.00%

                    ----------------------
                    AO INTEGRAL TECHNOLOGY
                    ----------------------
     S,P,L SHELL ROTATED AXIS INTEGRALS, REPROGRAMMED BY
        KAZUYA ISHIMURA (IMS) AND JOSE SIERRA (SYNSTAR).
     S,P,D,L SHELL ROTATED AXIS INTEGRALS PROGRAMMED BY
        KAZUYA ISHIMURA (INSTITUTE FOR MOLECULAR SCIENCE).
     S,P,D,F,G SHELL TO TOTAL QUARTET ANGULAR MOMENTUM SUM 5,
        ERIC PROGRAM BY GRAHAM FLETCHER (ELORET AND NASA ADVANCED
        SUPERCOMPUTING DIVISION, AMES RESEARCH CENTER).
     S,P,D,F,G,L SHELL GENERAL RYS QUADRATURE PROGRAMMED BY
        MICHEL DUPUIS (PACIFIC NORTHWEST NATIONAL LABORATORY).

          --------------------
          2 ELECTRON INTEGRALS
          --------------------

 DIRECT SCF METHOD SKIPS INTEGRAL STORAGE ON DISK.
 DIRECT TRANSFORMATION SKIPS AO INTEGRAL STORAGE ON DISK.
  ...... END OF TWO-ELECTRON INTEGRALS .....
 STEP CPU TIME =     0.03 TOTAL CPU TIME =          0.1 (      0.0 MIN)
 TOTAL WALL CLOCK TIME=          0.1 SECONDS, CPU UTILIZATION IS   100.00%
 DDI: Creating Array [0] - 900 x 36 = 32400 words.
 DDI: Creating Array [1] - 21 x 288 = 6048 words.
 DDI: Creating Array [2] - 36 x 36 = 1296 words.
 DDI: Creating Array [3] - 465 x 36 = 16740 words.

          -----------------
          MCSCF CALCULATION
          -----------------

 ----- NUCLEAR ENERGY ----- =        11.7565984533

     -------------------------------------------------
     GMC-PT/GMC-QDPT or general MCSCF input parameters
     -------------------------------------------------
 # of frozen core orbs. =         0 ->         0
 # of doubly occ. orbs. =         1
 # of active      orbs. =         7
 # of virtual     orbs. =        21
 # of active electrons  =         7
 # of states in CI      =         3
 Highest state in CI    =         3
 kstate =  1 1 1
 avecoe =  0.333 0.333 0.333
 State symmetry           = A           
 Assigned symmetry number = 1

 <<<Act. MO sym.: 1111111

 <<<Division of 1-ext.:  0
 <<<Division of 2-ext.:  0

 *** Reference space

 Reference type: ORMAS (= Occupation restricted multiple active space)
 # of orbitals          =  7
 # of minimum electrons =  7
 # of maximum electrons =  7
 State symmetry    =    1 (input)
 2*Sz              =    1 (input)
 Spin multiplicity =    2 (input)
 Dimension of reference space =      1225  (from      3432 walks)

 Dimension of reference space =      1225  (from      1225 walks)

 <<<Ionized spaces for Ref-CI:
      0:         1225 /   -1-0:         1960 /  0-1-0:         2891

 EVALUATING EXCHANGE INTEGRALS FOR DIRECT INTEGRAL TRANSFORMATION
 SCHWARZ INEQUALITY OVERHEAD:       465 INTEGRALS, T=        0.00

     --------------------------------------------
     PARTIAL TWO ELECTRON INTEGRAL TRANSFORMATION
     --------------------------------------------

 NUMBER OF CORE MOLECULAR ORBITALS     =    1
 NUMBER OF OCCUPIED MOLECULAR ORBITALS =    8
 TOTAL NUMBER OF MOLECULAR ORBITALS    =   29
 TOTAL NUMBER OF ATOMIC ORBITALS       =   30
 THRESHOLD FOR KEEPING TRANSFORMED 2E- INTEGRALS = 1.000E-09

 -------------------------------     ------------------------------
 DISTRIBUTED DATA TRANSFORMATION     PROGRAM WRITTEN BY G. FLETCHER
 -------------------------------     ------------------------------

 THE DISTRIBUTED MEMORY REQUIRED FOR THIS STEP IS MEMDDI=         1 MWORDS
 CREATING DISTRIBUTED STORAGE FOR [VIR OCC|VIR OCC] INTEGRALS
 CREATING DISTRIBUTED STORAGE FOR [VIR OCC|OCC OCC] INTEGRALS
 CREATING DISTRIBUTED STORAGE FOR [OCC OCC|OCC OCC] INTEGRALS
 CREATING DISTRIBUTED STORAGE FOR [VIR VIR|OCC OCC] INTEGRALS
 FOR    1 PROCESSORS, THE REPLICATED MEMORY NEEDED IS       73700 WORDS.
 SCHWARZ INEQUALITY OVERHEAD:       465 INTEGRALS, T=        0.00

      DIRECT 4-INDEX TRANSFORMATION 
      SCHWARZ INEQUALITY TEST SKIPPED          0 INTEGRAL BLOCKS
 ----- FROZEN CORE ENERGY =       -47.8090118999
 ... END OF INTEGRAL TRANSFORMATION ...
 CPU     0: STEP CPU TIME=     0.22 TOTAL CPU TIME=          0.3 (      0.0 MIN)
 TOTAL WALL CLOCK TIME=          0.3 SECONDS, CPU UTILIZATION IS   100.00%

     --------------------------------     -----------------------------
     MCHF NEWTON-RAPHSON OPTIMIZATION     CODE WRITTEN BY MICHEL DUPUIS
     --------------------------------     -----------------------------
     PARALLEL VERSION WRITTEN BY G. FLETCHER (ELORET)
     NASA ADVANCED SUPERCOMPUTING DIVISION, AMES RESEARCH CENTER

 NUMBER OF INDEPENDENT ORBITAL ROTATION PARAMETERS =   175
 ..... DONE SOLVING NEWTON-RAPHSON EQUATIONS .....
 CPU     0: STEP CPU TIME=     0.80 TOTAL CPU TIME=          1.1 (      0.0 MIN)
 TOTAL WALL CLOCK TIME=          1.1 SECONDS, CPU UTILIZATION IS    99.09%
 ..... DONE WITH NTN-RPH ORBITAL ROTATIONS ..... 
 CPU     0: STEP CPU TIME=     0.00 TOTAL CPU TIME=          1.1 (      0.0 MIN)
 TOTAL WALL CLOCK TIME=          1.1 SECONDS, CPU UTILIZATION IS    99.09%
 MAXIMUM MEMORY USED BY NTN-RPH CODE WAS     57645 WORDS.

 ITER     TOTAL ENERGY      DEL(E)  LAGRANGIAN ASYMMETRY   SQCDF  MICIT   DAMP
   1      -55.679262397 -0.679262397  0.131601   14    4 1.708E-01  1   0.0000
   2      -55.715613972 -0.036351575  0.024988   12    5 4.506E-01  1   0.0000
   3      -55.747435052 -0.031821080  0.012327   12    5 2.114E-01  1   0.0263
   4      -55.760607187 -0.013172135  0.004060   11    6 3.733E-02  1   0.0045
   5      -55.762199636 -0.001592449  0.000754   12    5 1.150E-03  1   0.0000
   6      -55.762249129 -0.000049493  0.000253   12    5 9.747E-05  1   0.0000
   7      -55.762254138 -0.000005010  0.000113   12    5 1.333E-05  1   0.0000
   8      -55.762254863 -0.000000725  0.000050   12    5 1.969E-06  1   0.0000
   9      -55.762254973 -0.000000109  0.000021   12    5 2.985E-07  1   0.0000
  10      -55.762254989 -0.000000017  0.000009   12    5 4.648E-08  1   0.0000
  11      -55.762254992 -0.000000003  0.000003   12    5 7.713E-09  1   0.0000
  12      -55.762254992 -0.000000000  0.000001   12    5 1.407E-09  1   0.0000
  13      -55.762254992 -0.000000000  0.000001   12    5 3.170E-10  1   0.0000

          --------------------
          LAGRANGIAN CONVERGED
          --------------------

 FINAL MCSCF ENERGY IS      -55.7622549924 AFTER  13 ITERATIONS

 -MCCI- BASED ON OPTIMIZED ORBITALS
 ----------------------------------

 PLEASE NOTE: IF THE ACTIVE ORBITALS ARE CANONICALIZED BELOW,
 THE FOLLOWING CI EXPANSION COEFFICIENTS AND THE DENSITY DO NOT
 CORRESPOND TO THE PRINTED ORBITALS.  THE PRINTED EXPANSIONS MATCH
 THE ORBITALS USED DURING THE LAST ITERATION.  IF YOU WISH TO SEE
 CI EXPANSIONS BASED ON THE CANONICAL (OR NATURAL) ORBITALS, YOU
 MUST RUN A CI CALCULATION WITH THAT ORBITAL CHOICE READ IN $VEC.

 Averaged energy =     -55.762254992

 State #    1  Energy =     -55.904799315  S =  0.500

      Det      Coef    Occupancy (Ignoring core)
      ---      ----    --------- --------- -----
        1    0.953261  11110001110000
        2    0.055321  11101001110000
        5   -0.059624  01111001110000
        8   -0.124429  10110101110000
       17   -0.129287  11010011110000
      386    0.096412  11110001010010
      393    0.062182  10110101010010
      701    0.103433  11110001100001
      717    0.056420  11010011100001

 State #    2  Energy =     -55.728420893  S =  0.500

      Det      Coef    Occupancy (Ignoring core)
      ---      ----    --------- --------- -----
       36    0.527399  11110001101000
       71   -0.814697  11110001011000
       78    0.054898  10110101011000
       87    0.078099  11010011011000
      456    0.056805  11110001001010
      806    0.084638  11110001001001

 State #    3  Energy =     -55.653544769  S =  0.500

      Det      Coef    Occupancy (Ignoring core)
      ---      ----    --------- --------- -----
        1   -0.052617  11110001110000
       36   -0.813795  11110001101000
       43    0.068683  10110101101000
       52    0.052864  11010011101000
       71   -0.527353  11110001011000
      281   -0.053871  11110000101100
      456   -0.075414  11110001001010
      463   -0.055884  10110101001010
      806    0.050897  11110001001001

 DENSITY MATRIX OVER ACTIVE MO-S

             1           2           3           4           5

    1    1.9799345
    2    0.0020358   1.6375282
    3   -0.0042428   0.0003295   1.6372610
    4    0.0038014   0.0000147  -0.0001353   1.6558715
    5    0.0934826  -0.0010083   0.0026242   0.0427772   0.0236382
    6   -0.0025355  -0.1340255   0.0137081   0.0030961  -0.0000287
    7   -0.0040461  -0.0088176   0.1438010   0.0063031   0.0002037

             6           7

    6    0.0328151
    7    0.0000643   0.0329515

 FORMING THE "STANDARD FOCK OPERATOR" IN DIRECT AO INTEGRAL MODE...
 ONLY THE    1 CORE AND   21 VIRTUAL ORBITALS WILL BE CANONICALIZED

          ----------------------
          MCSCF NATURAL ORBITALS
          ----------------------

                      1          2          3          4          5
                  -15.9875     1.9846     1.6570     1.6510     1.6477
                     A          A          A          A          A   
    1  N  1  S    1.001353   0.008319  -0.011430   0.001179   0.000103
    2  N  1  S   -0.001747   0.439010  -0.181286   0.045808   0.002980
    3  N  1  S   -0.006403   0.281618  -0.285221   0.063928   0.004406
    4  N  1  X   -0.000031   0.006170  -0.037141  -0.251516   0.442050
    5  N  1  Y    0.000052  -0.013059   0.069100   0.417385   0.266046
    6  N  1  Z    0.001169   0.097763   0.591222  -0.065933  -0.002140
    7  N  1  X    0.000013  -0.000875  -0.020496  -0.093825   0.207344
    8  N  1  Y   -0.000029   0.002045   0.039828   0.155898   0.124944
    9  N  1  Z   -0.000438   0.004397   0.380807  -0.030993  -0.000229
   10  N  1 XX   -0.000001  -0.001022  -0.012546  -0.002511   0.010134
   11  N  1 YY    0.000185  -0.000151  -0.011799   0.005654  -0.010026
   12  N  1 ZZ   -0.000183   0.001173   0.024345  -0.003143  -0.000108
   13  N  1 XY   -0.000212  -0.000903  -0.000829  -0.008165  -0.007183
   14  N  1 XZ    0.000027   0.000503  -0.001252  -0.012797   0.022192
   15  N  1 YZ   -0.000058  -0.000920   0.002136   0.021364   0.013406
   16  H  2  S   -0.002131   0.186822   0.146480   0.362014   0.005236
   17  H  2  S    0.000574   0.001409   0.028299   0.041233   0.000998
   18  H  2  X   -0.000553   0.019186   0.010000   0.016099   0.017391
   19  H  2  Y    0.000943  -0.032657  -0.016925  -0.027680   0.009907
   20  H  2  Z    0.000422  -0.006085   0.017085  -0.018956  -0.000323
   21  H  3  S   -0.002013   0.197769   0.085891  -0.207490  -0.321520
   22  H  3  S    0.000417   0.004426   0.021855  -0.025606  -0.056012
   23  H  3  X   -0.000391   0.013304   0.006039  -0.023762   0.000373
   24  H  3  Y   -0.000900   0.033781   0.015220  -0.009661  -0.028684
   25  H  3  Z    0.000459  -0.010586   0.020023   0.008004   0.016336
   26  H  4  S   -0.002011   0.196426   0.086269  -0.219820   0.312673
   27  H  4  S    0.000426   0.004038   0.022149  -0.027139   0.054551
   28  H  4  X    0.000978  -0.035859  -0.016007   0.021615  -0.023848
   29  H  4  Y   -0.000118   0.005644   0.002505   0.014751   0.015555
   30  H  4  Z    0.000456  -0.010236   0.020025   0.008543  -0.015865

                      6          7          8
                    0.0229     0.0188     0.0181
                     A          A          A   
    1  N  1  S    0.005858   0.006687   0.269416
    2  N  1  S    0.017876   0.002631   0.847546
    3  N  1  S   -0.001087  -0.059371   0.148219
    4  N  1  X    0.752767  -0.494138  -0.042716
    5  N  1  Y    0.462150   0.805573   0.036134
    6  N  1  Z    0.006306  -0.096951   0.683060
    7  N  1  X    0.016802  -0.038604   0.008186
    8  N  1  Y    0.010388   0.063936  -0.019252
    9  N  1  Z   -0.001510   0.003999  -0.100960
   10  N  1 XX   -0.016022  -0.011029   0.013946
   11  N  1 YY    0.015937   0.006502  -0.004873
   12  N  1 ZZ    0.000085   0.004528  -0.009073
   13  N  1 XY    0.012209  -0.015917   0.020750
   14  N  1 XZ   -0.026510   0.027059  -0.005883
   15  N  1 YZ   -0.016032  -0.044305   0.013842
   16  H  2  S   -0.028263  -0.683745  -0.599258
   17  H  2  S   -0.004428  -0.124982  -0.066193
   18  H  2  X   -0.016040  -0.029856  -0.041162
   19  H  2  Y   -0.006237   0.051543   0.070868
   20  H  2  Z    0.000341  -0.002393  -0.009878
   21  H  3  S    0.631358   0.386627  -0.482894
   22  H  3  S    0.128704   0.068078  -0.051085
   23  H  3  X    0.008810   0.039536  -0.032585
   24  H  3  Y    0.052262   0.020487  -0.064915
   25  H  3  Z   -0.010569   0.005642  -0.011054
   26  H  4  S   -0.626747   0.419862  -0.460109
   27  H  4  S   -0.126388   0.074834  -0.046499
   28  H  4  X    0.050385  -0.040739   0.070552
   29  H  4  Y   -0.020111  -0.021907  -0.003958
   30  H  4  Z    0.010110   0.005959  -0.011549

          ------------------------
          MCSCF OPTIMIZED ORBITALS
          ------------------------

                      1          2          3          4          5
                  -15.9875     0.0000     0.0000     0.0000     0.0000
                     A          A          A          A          A   
    1  N  1  S    1.001353  -0.004103   0.002038  -0.003499  -0.018427
    2  N  1  S   -0.001747   0.402408  -0.003458   0.006983  -0.199805
    3  N  1  S   -0.006403   0.279773  -0.013608   0.026686  -0.289411
    4  N  1  X   -0.000031   0.001264   0.433170   0.031175  -0.008116
    5  N  1  Y    0.000052  -0.002899   0.006729   0.415043   0.016087
    6  N  1  Z    0.001169   0.053584  -0.001473   0.002460   0.578512
    7  N  1  X    0.000013  -0.002424   0.222338   0.033708  -0.010429
    8  N  1  Y   -0.000029   0.005563   0.021605   0.195695   0.021312
    9  N  1  Z   -0.000438   0.002143  -0.006586   0.012678   0.384354
   10  N  1 XX   -0.000001  -0.001556   0.011171   0.003541  -0.012554
   11  N  1 YY    0.000185   0.000395  -0.011483  -0.003009  -0.012232
   12  N  1 ZZ   -0.000183   0.001162   0.000312  -0.000532   0.024786
   13  N  1 XY   -0.000212  -0.002137  -0.003075  -0.010218  -0.000393
   14  N  1 XZ    0.000027   0.000836   0.028591   0.000269   0.000310
   15  N  1 YZ   -0.000058  -0.001534  -0.001388   0.029202  -0.000721
   16  H  2  S   -0.002131   0.213406  -0.233348   0.375840   0.123279
   17  H  2  S    0.000574   0.003830  -0.029340   0.048117   0.025233
   18  H  2  X   -0.000553   0.021018   0.004776   0.026883   0.009463
   19  H  2  Y    0.000943  -0.035726   0.027399  -0.023334  -0.016125
   20  H  2  Z    0.000422  -0.006241   0.008593  -0.013900   0.019325
   21  H  3  S   -0.002013   0.217082  -0.187880  -0.392261   0.125712
   22  H  3  S    0.000417   0.006332  -0.039919  -0.059653   0.026094
   23  H  3  X   -0.000391   0.014595   0.013926  -0.022273   0.009787
   24  H  3  Y   -0.000900   0.036429  -0.022428  -0.025629   0.018570
   25  H  3  Z    0.000459  -0.010183   0.009072   0.017709   0.018983
   26  H  4  S   -0.002011   0.216588   0.434850  -0.009796   0.125579
   27  H  4  S    0.000426   0.006101   0.070689   0.009019   0.026240
   28  H  4  X    0.000978  -0.038857  -0.035693   0.004349  -0.020793
   29  H  4  Y   -0.000118   0.005908   0.005240   0.023416   0.000962
   30  H  4  Z    0.000456  -0.009867  -0.019571  -0.000090   0.019050

                      6          7          8          9         10
                    0.0000     0.0000     0.0000     0.1536     0.1967
                     A          A          A          A          A   
    1  N  1  S    0.266959  -0.018128   0.029940  -0.160484  -0.011257
    2  N  1  S    0.857883  -0.047374   0.078988  -0.249995  -0.022136
    3  N  1  S    0.159716   0.021202  -0.037056   1.586783   0.047267
    4  N  1  X    0.020760   0.939923   0.013393  -0.006684  -0.049478
    5  N  1  Y   -0.041587  -0.073981   0.966435   0.014738   0.080563
    6  N  1  Z    0.708122   0.009054  -0.019722  -0.236209  -0.029687
    7  N  1  X    0.012020   0.053154  -0.020005   0.038650   0.353267
    8  N  1  Y   -0.024652  -0.025723   0.074525  -0.076639  -0.606061
    9  N  1  Z   -0.090850   0.002423  -0.002958   0.551772   0.079029
   10  N  1 XX    0.014415  -0.007191  -0.016836   0.005924   0.026773
   11  N  1 YY   -0.005600   0.009018   0.013725   0.040378  -0.033963
   12  N  1 ZZ   -0.008815  -0.001827   0.003111  -0.046302   0.007190
   13  N  1 XY    0.022405   0.017376  -0.005500  -0.039043   0.064267
   14  N  1 XZ   -0.009096  -0.034355   0.006805   0.011563   0.054269
   15  N  1 YZ    0.018204   0.010184  -0.041958  -0.023442  -0.094134
   16  H  2  S   -0.510389   0.380677  -0.594136   0.303812  -0.537756
   17  H  2  S   -0.051772   0.068295  -0.106553  -0.903496   1.872639
   18  H  2  X   -0.036767   0.006589  -0.034650  -0.059879   0.049368
   19  H  2  Y    0.062823  -0.036730   0.042518   0.101190  -0.082541
   20  H  2  Z   -0.009401   0.003123  -0.003769   0.003147  -0.077623
   21  H  3  S   -0.499368   0.329365   0.603533   0.222503   0.254491
   22  H  3  S   -0.055263   0.069389   0.119822  -0.817245  -0.957477
   23  H  3  X   -0.035608  -0.011164   0.033005  -0.012107  -0.046567
   24  H  3  Y   -0.063843   0.034901   0.039093  -0.105894  -0.032374
   25  H  3  Z   -0.011730  -0.010572  -0.000565   0.036483   0.055810
   26  H  4  S   -0.498796  -0.685622  -0.046494   0.232141   0.242428
   27  H  4  S   -0.055189  -0.137641  -0.012669  -0.834777  -0.922805
   28  H  4  X    0.072968   0.056513   0.000960   0.097817   0.050927
   29  H  4  Y   -0.001573  -0.003865  -0.027725  -0.043492   0.023632
   30  H  4  Z   -0.011942   0.004206   0.009898   0.034871   0.056395

                     11         12         13         14         15
                    0.2022     0.5520     0.5564     0.6254     0.8281
                     A          A          A          A          A   
    1  N  1  S   -0.001742  -0.012270   0.027550  -0.089769  -0.202993
    2  N  1  S   -0.003221   0.000737  -0.019175  -0.329018  -0.455164
    3  N  1  S    0.012995   0.166479  -0.454657  -0.127190   0.923471
    4  N  1  X    0.021000  -0.424708  -0.369440   0.119723  -0.044843
    5  N  1  Y    0.008212  -0.407931   0.260157  -0.212242   0.072157
    6  N  1  Z   -0.002783  -0.130666   0.367928   0.569722   0.139762
    7  N  1  X   -0.434671   1.215362   1.244436  -0.588697   0.278333
    8  N  1  Y   -0.236384   1.270755  -0.995221   1.042953  -0.449913
    9  N  1  Z    0.007526   0.195662  -0.564859  -0.969250   0.062942
   10  N  1 XX   -0.073269   0.000750  -0.003528   0.027230   0.091267
   11  N  1 YY    0.073191  -0.009356   0.029741   0.034160  -0.045298
   12  N  1 ZZ    0.000079   0.008606  -0.026214  -0.061390  -0.045969
   13  N  1 XY    0.048756   0.007743  -0.030015  -0.009407   0.126608
   14  N  1 XZ   -0.071953   0.023681   0.021715   0.014839  -0.067736
   15  N  1 YZ   -0.040011   0.024914  -0.017946  -0.027770   0.108175
   16  H  2  S    0.002160  -0.262184   0.797768  -0.009555   0.061124
   17  H  2  S   -0.016682  -0.264900   0.763380  -0.629184   0.007484
   18  H  2  X    0.042854   0.044706   0.087096  -0.077238   0.040016
   19  H  2  Y    0.027864   0.072398  -0.087086   0.128333  -0.096093
   20  H  2  Z    0.001823   0.029278  -0.080024  -0.076462   0.287576
   21  H  3  S    0.527932   0.445515   0.136582   0.690176  -0.096642
   22  H  3  S   -1.759146   0.996106  -0.034772   0.167246  -0.246160
   23  H  3  X   -0.018497   0.009903   0.084982   0.022676  -0.484934
   24  H  3  Y   -0.077058   0.133457  -0.063125   0.036113  -0.039480
   25  H  3  Z    0.044839  -0.078160  -0.037221  -0.022321  -0.146882
   26  H  4  S   -0.530588  -0.441176  -0.177981   0.683612  -0.104953
   27  H  4  S    1.763176  -0.773920  -0.627516   0.150291  -0.259126
   28  H  4  X   -0.075215   0.089520   0.082541  -0.042437   0.289543
   29  H  4  Y    0.022105   0.011942  -0.123532   0.000508   0.386933
   30  H  4  Z   -0.045074   0.084054   0.014306  -0.020765  -0.161803

                     16         17         18         19         20
                    0.9591     0.9885     1.3618     1.4673     1.5255
                     A          A          A          A          A   
    1  N  1  S   -0.525127  -0.011418  -0.003067  -0.372595  -0.520298
    2  N  1  S   -1.115225  -0.024218  -0.006338  -0.771266  -1.061354
    3  N  1  S    2.251971   0.061706   0.010947   1.406878   2.128530
    4  N  1  X   -0.019235   0.062467   0.096518   0.031803  -0.029771
    5  N  1  Y    0.038338   0.037010   0.040529  -0.054658   0.043612
    6  N  1  Z    0.166676   0.004640  -0.000592  -0.023779  -0.012945
    7  N  1  X    0.075988  -0.378670  -0.315082  -0.444957   0.361840
    8  N  1  Y   -0.155064  -0.225617  -0.108053   0.787273  -0.653425
    9  N  1  Z   -0.075994   0.018703   0.002326   0.538566   0.915501
   10  N  1 XX   -0.124641  -0.135731  -0.023944   0.092579   0.108860
   11  N  1 YY   -0.095151   0.140917   0.025349   0.104867   0.108121
   12  N  1 ZZ    0.219792  -0.005186  -0.001405  -0.197446  -0.216981
   13  N  1 XY   -0.030205   0.095343   0.010870  -0.013947   0.000381
   14  N  1 XZ   -0.001947   0.219421  -0.005980   0.023749  -0.022538
   15  N  1 YZ    0.007368   0.132105  -0.004428  -0.044842   0.049145
   16  H  2  S   -0.267296  -0.009016  -0.033620  -0.769407  -0.296344
   17  H  2  S   -0.312747  -0.007935  -0.015678  -0.334769  -0.030987
   18  H  2  X    0.017833   0.418596   0.642914   0.079698  -0.100511
   19  H  2  Y   -0.029240   0.253926   0.356979  -0.222990   0.207422
   20  H  2  Z    0.290250   0.004777   0.028186   0.255186  -0.841441
   21  H  3  S   -0.374804  -0.123432  -0.135785  -0.174145  -0.767479
   22  H  3  S   -0.306625  -0.138644  -0.032919  -0.017328  -0.259991
   23  H  3  X    0.107512   0.088517  -0.360935   0.371786  -0.150855
   24  H  3  Y    0.060219  -0.259990   0.348349  -0.316843   0.097728
   25  H  3  Z    0.338320  -0.383670   0.143519  -0.466839  -0.034043
   26  H  4  S   -0.369274   0.103060   0.163420  -0.176565  -0.764094
   27  H  4  S   -0.304400   0.120064   0.044594  -0.017294  -0.248107
   28  H  4  X   -0.103377  -0.151234   0.131024   0.070997  -0.011213
   29  H  4  Y   -0.062331   0.218714  -0.527047  -0.454219   0.154994
   30  H  4  Z    0.340643   0.366993  -0.176943  -0.456817  -0.071907

                     21         22         23         24         25
                    1.6141     1.8485     1.8607     2.0944     2.2321
                     A          A          A          A          A   
    1  N  1  S   -0.003474  -0.008752  -0.015997   0.032390  -0.099690
    2  N  1  S   -0.007522  -0.018720  -0.044740   0.195550  -0.248107
    3  N  1  S    0.005891   0.037563   0.029400   2.102618  -0.433849
    4  N  1  X    0.178295   0.318733  -0.367522   0.001530  -0.077078
    5  N  1  Y    0.110818   0.278108   0.514421  -0.009891   0.137260
    6  N  1  Z   -0.001993  -0.007654  -0.047248   0.381965  -0.137368
    7  N  1  X    0.626980  -0.187097  -0.000978  -0.027968   0.011337
    8  N  1  Y    0.329903  -0.106706   0.040072   0.074805  -0.058274
    9  N  1  Z    0.000874   0.010852  -0.019683   0.930658   0.130075
   10  N  1 XX   -0.005020  -0.153394   0.217745  -0.191364  -0.612593
   11  N  1 YY    0.012319   0.174878  -0.097873  -0.224522  -0.071378
   12  N  1 ZZ   -0.007299  -0.021484  -0.119872   0.415886   0.683971
   13  N  1 XY    0.008930   0.155669   0.248417   0.047627  -0.599856
   14  N  1 XZ   -0.194535  -0.107025   0.104455   0.016811   0.179460
   15  N  1 YZ   -0.111903  -0.088046  -0.137583  -0.004081  -0.392011
   16  H  2  S    0.013237   0.001970   0.066514  -0.631723   0.088109
   17  H  2  S    0.002545  -0.060431  -0.404460  -0.391389   0.005125
   18  H  2  X   -0.375510  -0.047828  -0.376585  -0.482909   0.057393
   19  H  2  Y   -0.211084   0.097122   0.663542   0.772943  -0.042632
   20  H  2  Z   -0.012208   0.046614   0.416672  -0.154861  -0.037954
   21  H  3  S    0.113430  -0.133256  -0.035460  -0.594640   0.118073
   22  H  3  S    0.274947   0.387130   0.152410  -0.260864   0.121973
   23  H  3  X   -0.420380   0.634684   0.127056  -0.118434  -0.259207
   24  H  3  Y    0.229042   0.596915   0.299344  -0.783756   0.296472
   25  H  3  Z   -0.613495  -0.146810  -0.196771  -0.044381  -0.554535
   26  H  4  S   -0.131619   0.099435  -0.059797  -0.598251   0.127683
   27  H  4  S   -0.277895  -0.337821   0.251158  -0.274281   0.131578
   28  H  4  X   -0.029965   0.726542  -0.529850   0.741639  -0.137988
   29  H  4  Y   -0.466425   0.246773  -0.028438  -0.322702   0.407676
   30  H  4  Z    0.621535   0.082469  -0.245402  -0.059066  -0.521691

                     26         27         28         29
                    2.3389     2.5464     2.8028     2.8967
                     A          A          A          A   
    1  N  1  S    0.002576   0.012208  -0.061125   0.005592
    2  N  1  S    0.000855   0.153663  -0.139693   0.014862
    3  N  1  S   -0.075788   1.862291  -0.226625   0.042470
    4  N  1  X    0.019151   0.019345   0.381844   0.508048
    5  N  1  Y    0.023001  -0.060862  -0.570079   0.349740
    6  N  1  Z   -0.010987   0.300377  -0.044663   0.005834
    7  N  1  X    0.459498   0.218707   0.787176   0.884378
    8  N  1  Y    0.258437  -0.447378  -1.182881   0.612162
    9  N  1  Z   -0.027152   0.346679   0.060529  -0.005876
   10  N  1 XX   -0.563187   0.105952   0.347100   0.899935
   11  N  1 YY    0.556107   0.667247  -0.551191  -0.866923
   12  N  1 ZZ    0.007080  -0.773198   0.204091  -0.033012
   13  N  1 XY    0.304810  -0.564408   0.755499  -0.687471
   14  N  1 XZ    0.753666   0.302712   0.626354   0.766282
   15  N  1 YZ    0.405547  -0.599945  -0.931758   0.520425
   16  H  2  S    0.022201  -0.486413   1.498640  -0.118371
   17  H  2  S    0.004779  -0.093564   0.552598  -0.039884
   18  H  2  X   -0.596948  -0.174983   0.567496  -0.009819
   19  H  2  Y   -0.366462   0.321028  -0.951265   0.098346
   20  H  2  Z    0.018400   0.582102  -0.423823   0.046260
   21  H  3  S    0.171201  -0.814504  -0.533909   1.187768
   22  H  3  S    0.155288  -0.261350  -0.194920   0.443404
   23  H  3  X   -0.263102  -0.456138  -0.150347   0.283425
   24  H  3  Y    0.313378  -0.346410  -0.291665   0.882185
   25  H  3  Z    0.228273   0.402853   0.087115  -0.481615
   26  H  4  S   -0.120376  -0.777860  -0.698302  -1.120037
   27  H  4  S   -0.132243  -0.235251  -0.261574  -0.418081
   28  H  4  X    0.097864   0.501139   0.450722   0.865547
   29  H  4  Y   -0.316749   0.237403  -0.060325  -0.195874
   30  H  4  Z   -0.259973   0.392806   0.142162   0.469697
 .....DONE WITH MCSCF ITERATIONS.....
 CPU     0: STEP CPU TIME=     8.14 TOTAL CPU TIME=          9.2 (      0.2 MIN)
 TOTAL WALL CLOCK TIME=          9.2 SECONDS, CPU UTILIZATION IS    99.89%

     ----------------------------------------------------------------
     PROPERTY VALUES FOR THE MCSCF SELF-CONSISTENT FIELD WAVEFUNCTION
     ----------------------------------------------------------------

          -----------------
          ENERGY COMPONENTS
          -----------------

         WAVEFUNCTION NORMALIZATION =       1.0000000000

                ONE ELECTRON ENERGY =     -94.9029134241
                TWO ELECTRON ENERGY =      27.3840599783
           NUCLEAR REPULSION ENERGY =      11.7565984533
                                      ------------------
                       TOTAL ENERGY =     -55.7622549924

 ELECTRON-ELECTRON POTENTIAL ENERGY =      27.3840599783
  NUCLEUS-ELECTRON POTENTIAL ENERGY =    -150.8353418744
   NUCLEUS-NUCLEUS POTENTIAL ENERGY =      11.7565984533
                                      ------------------
             TOTAL POTENTIAL ENERGY =    -111.6946834427
               TOTAL KINETIC ENERGY =      55.9324284503
                 VIRIAL RATIO (V/T) =       1.9969575171

          ---------------------------------------
          MULLIKEN AND LOWDIN POPULATION ANALYSES
          ---------------------------------------

     ATOMIC MULLIKEN POPULATION IN EACH MOLECULAR ORBITAL

                      1          2          3          4          5

                  2.000000   1.984579   1.656985   1.651020   1.647683

    1             2.001045   1.293232   1.541315   0.939295   1.035754
    2            -0.000372   0.213462   0.061400   0.417089   0.008186
    3            -0.000337   0.240551   0.027192   0.139232   0.309617
    4            -0.000335   0.237334   0.027078   0.155404   0.294125

                      6          7          8

                  0.022865   0.018808   0.018061

    1             0.011544   0.010059   0.009583
    2            -0.000027   0.005098   0.003741
    3             0.005707   0.001677   0.002481
    4             0.005641   0.001975   0.002256
 WARNING! MCSCF POPULATIONS SHOWN ABOVE ARE FOR THE NATURAL ORBITALS.
 IGNORE THE ABOVE DATA FOR MCSCF FUNCTIONS WHICH ARE NOT OF -FORS- TYPE.
 THE FOLLOWING POPULATIONS ARE CORRECT FOR ANY MCSCF WAVEFUNCTION.

               ----- POPULATIONS IN EACH AO -----
                             MULLIKEN      LOWDIN
              1  N  1  S      2.00279     1.89289
              2  N  1  S      0.82776     0.57611
              3  N  1  S      0.61296     0.38760
              4  N  1  X      0.69823     0.62650
              5  N  1  Y      0.68507     0.60796
              6  N  1  Z      0.88978     0.83061
              7  N  1  X      0.31181     0.39867
              8  N  1  Y      0.27865     0.38405
              9  N  1  Z      0.51546     0.55226
             10  N  1 XX      0.00056     0.16405
             11  N  1 YY      0.00307     0.17288
             12  N  1 ZZ      0.00235     0.14177
             13  N  1 XY      0.00648     0.00906
             14  N  1 XZ      0.00686     0.01154
             15  N  1 YZ      0.00000     0.01306
             16  H  2  S      0.62106     0.48277
             17  H  2  S      0.02892     0.14062
             18  H  2  X      0.01554     0.03035
             19  H  2  Y      0.02956     0.05040
             20  H  2  Z      0.01350     0.03741
             21  H  3  S      0.62830     0.48697
             22  H  3  S      0.03884     0.14107
             23  H  3  X      0.01257     0.02561
             24  H  3  Y      0.03067     0.05114
             25  H  3  Z      0.01573     0.04006
             26  H  4  S      0.62635     0.48620
             27  H  4  S      0.03829     0.14122
             28  H  4  X      0.03374     0.05614
             29  H  4  Y      0.00957     0.02122
             30  H  4  Z      0.01552     0.03980

          ----- MULLIKEN ATOMIC OVERLAP POPULATIONS -----
          (OFF-DIAGONAL ELEMENTS NEED TO BE MULTIPLIED BY 2)

             1           2           3           4

    1    5.8943839
    2    0.3235916   0.3953221
    3    0.3119733  -0.0051284   0.4252643
    4    0.3118793  -0.0052099  -0.0059885   0.4227951

          TOTAL MULLIKEN AND LOWDIN ATOMIC POPULATIONS
       ATOM         MULL.POP.    CHARGE          LOW.POP.     CHARGE
    1 N             6.841828    0.158172         6.769015    0.230985
    2 H             0.708575    0.291425         0.741543    0.258457
    3 H             0.726121    0.273879         0.744854    0.255146
    4 H             0.723476    0.276524         0.744587    0.255413

          MULLIKEN SPHERICAL HARMONIC POPULATIONS
       ATOM           S       P       D      F      G      H      I    TOTAL
    1 N             3.44    3.38    0.02   0.00   0.00   0.00   0.00    6.84
    2 H             0.65    0.06    0.00   0.00   0.00   0.00   0.00    0.71
    3 H             0.67    0.06    0.00   0.00   0.00   0.00   0.00    0.73
    4 H             0.66    0.06    0.00   0.00   0.00   0.00   0.00    0.72

          ---------------------
          ELECTROSTATIC MOMENTS
          ---------------------

 POINT   1           X           Y           Z (BOHR)    CHARGE
                 0.000001   -0.000001   -0.177185        1.00 (A.U.)
         DX          DY          DZ         /D/  (DEBYE)
     0.103626   -0.206230    2.149000    2.161359
 ...... END OF PROPERTY EVALUATION ......
 CPU     0: STEP CPU TIME=     0.00 TOTAL CPU TIME=          9.2 (      0.2 MIN)
 TOTAL WALL CLOCK TIME=          9.2 SECONDS, CPU UTILIZATION IS    99.89%

     -------------------------------------------------
     GMC-PT/GMC-QDPT or general MCSCF input parameters
     -------------------------------------------------
 # of frozen core orbs. =         0 ->         0
 # of doubly occ. orbs. =         1
 # of active      orbs. =         7
 # of virtual     orbs. =        21
 # of active electrons  =         7
 # of states in CI      =         3
 Highest state in CI    =         3
 kstate =  1 1 1
 avecoe =  0.333 0.333 0.333
 State symmetry           = A           
 Assigned symmetry number = 1

 <<<Act. MO sym.: 1111111

 <<<Division of 1-ext.:  0
 <<<Division of 2-ext.:  0

     ------------------------
     Orbital canonicalization
     ------------------------

 MOs are canonicalized for core, virtual, and invariant-active orbital spaces.
 This is a part of the GMC-QDPT calculation.
 SCHWARZ INEQUALITY OVERHEAD:       465 INTEGRALS, T=        0.00
 DIRECT TRANSFORMATION SKIPS AO INTEGRAL STORAGE ON DISK.

 Averaged energy =     -55.762254992

 State #    1  Energy =     -55.904799315  S =  0.500
 State #    2  Energy =     -55.728420893  S =  0.500
 State #    3  Energy =     -55.653544769  S =  0.500

 Orbital energies for filled orbital space
  -15.987516
 Orbital energies for active orbital space
   -1.536509  -0.900057  -0.980070  -0.761173   0.423592
    0.324851   0.410528
 Orbital energies for external orbital space
    0.153649   0.196748   0.202240   0.552011   0.556416
    0.625432   0.828128   0.959139   0.988475   1.361827
    1.467303   1.525512   1.614149   1.848547   1.860725
    2.094352   2.232147   2.338925   2.546351   2.802808
    2.896656

 Zero values mean non-canonical orbitals.
 ... done with orbital canonicalization ...
 CPU     0: STEP CPU TIME=     0.60 TOTAL CPU TIME=          9.8 (      0.2 MIN)
 TOTAL WALL CLOCK TIME=          9.8 SECONDS, CPU UTILIZATION IS    99.90%

     --------------------------------------------
     PARTIAL TWO ELECTRON INTEGRAL TRANSFORMATION
     --------------------------------------------

 NUMBER OF CORE MOLECULAR ORBITALS     =    0
 NUMBER OF OCCUPIED MOLECULAR ORBITALS =    8
 TOTAL NUMBER OF MOLECULAR ORBITALS    =   29
 TOTAL NUMBER OF ATOMIC ORBITALS       =   30
 THRESHOLD FOR KEEPING TRANSFORMED 2E- INTEGRALS = 1.000E-09
 AO INTEGRALS WILL BE CALCULATED IN DIRECT MODE...
 DIRECT TRANSFORMATION SKIPS AO INTEGRAL STORAGE ON DISK.
 SCHWARZ INEQUALITY OVERHEAD:       465 INTEGRALS, T=        0.00

 PLAN A: REQUIREMENTS FOR FULLY IN-MEMORY TRANSFORMATION:
 # OF WORDS AVAILABLE =            100000000
 # OF WORDS NEEDED    =               221798

 PARALLEL ONLY WORKS WITH THE SEGMENTED ALGORITHM.
 ADJUSTING MEMORY TO USE SEGMENTED ALGORITHM.


 PLAN B: REQUIREMENTS FOR THE SEGMENTED TRANSFORMATION:
       MINIMUM=         124148 WORDS FOR 1 MOLECULAR ORBITAL PER PASS
       MAXIMUM=         221798 WORDS FOR ALL MOLECULAR ORBITALS IN 1 PASS
              (          13950 EXTRA WORDS INCLUDES 1 EXTRA ORBITAL/PASS)
 THIS RUN USES=         221798 WORDS,
 DISTRIBUTING   1 PASSES EACH CONTAINING     8 ORBITALS OVER   1 PROCESSORS.

 CHOOSING SEGMENTED PARTIAL TRANSFORMATION...
 DIRECT TRANSFORMATION SKIPS AO INTEGRAL STORAGE ON DISK.
 PASS #   1 TOOK        0.04 SECONDS.
 TOTAL NUMBER OF TRANSFORMED 2E- INTEGRALS KEPT =        29226
 ... END OF INTEGRAL TRANSFORMATION ...
 CPU     0: STEP CPU TIME=     0.04 TOTAL CPU TIME=          9.9 (      0.2 MIN)
 TOTAL WALL CLOCK TIME=          9.9 SECONDS, CPU UTILIZATION IS    99.90%

     --------     ------------------------------------------
     GMC-QDPT     Program written by H.Nakano (Kyushu Univ.)
     --------     ------------------------------------------

 *** Reference space

 Reference type: ORMAS (= Occupation restricted multiple active space)
 # of orbitals          =  7
 # of minimum electrons =  7
 # of maximum electrons =  7
 State symmetry    =    1 (input)
 2*Sz              =    1 (input)
 Spin multiplicity =    2 (input)
 Dimension of reference space =      1225  (from      3432 walks)

 Dimension of reference space =      1225  (from      1225 walks)

 <<<Ionized spaces for Ref-CI:
      0:         1225 /   -1-0:         1960 /  0-1-0:         2891

 ***                    ***
 *** Reference space CI ***
 ***                    ***

 Converged after   30 iterations

 Reference wavefunctions:

 State #    1  Energy =     -55.904799315  S =  0.500

      Det      Coef    Occupancy (Ignoring core)
      ---      ----    --------- --------- -----
        1   -0.980045  11110001110000
      393   -0.078536  10110101010010
      717   -0.065773  11010011100001

 State #    2  Energy =     -55.728420893  S =  0.500

      Det      Coef    Occupancy (Ignoring core)
      ---      ----    --------- --------- -----
       71    0.984679  11110001011000
      822   -0.065463  11010011001001

 State #    3  Energy =     -55.653544769  S =  0.500

      Det      Coef    Occupancy (Ignoring core)
      ---      ----    --------- --------- -----
       36   -0.982607  11110001101000
      463   -0.078147  10110101001010

 Davidson method: CPU/Wall time =           0.42 /           0.41 sec.

 Oscillator strength (invalid if E(1)/=E(GS)):
 -----------------------------------------
   State                        f
 -----------------------------------------
     2     F(REF-CI)=        0.0000591469
     3     F(REF-CI)=        0.0006185972
 -----------------------------------------

 Dipole moment matrix elements, x, y, z, in A.U.

 Dimension of ionized spaces for PT:
 (N-2) space:         1715 /  (N-1) space:         2842 /  N space:         2891
 (N+1) space:         2842 /  (N+2) space:         1715

 <<<Ionized spaces for internal:
         0:         1225 /      -1-0:         1960 /     0-1-0:         2891
  -1-0-1-0:         2842 / 0-1-0-1-0:         3381

 Diagonal elements of averaged one-particle density matrix:
       2       3       4       5       6       7       8
  0.9943  0.9883  0.9895  0.9933  0.0101  0.0136  0.0109
  0.9902  0.6592  0.6613  0.6637  0.0082  0.0095  0.0079

 Orbital energies:
 -------- Doubly-occupied orbitals (highest several orbs.) -------
             1
 -1.598752D+01
 -------- Active orbitals ----------------------------------------
             2            3            4            5            6
 -1.536509D+00-9.000572D-01-9.800701D-01-7.611730D-01 4.235921D-01
             7            8
  3.248514D-01 4.105279D-01
 -------- External orbitals (lowest several orbs.) ---------------
             9           10           11           12           13
  1.536494D-01 1.967480D-01 2.022403D-01 5.520113D-01 5.564155D-01
            14           15           16           17           18
  6.254316D-01 8.281276D-01 9.591395D-01 9.884750D-01 1.361827D+00

 *** Quasi-degeneracy checking

 === Det (|Ci| > 1.0D-01 and dE < 5.0D-03)

 # of small denominators (single excitations)
 State       dEmin  dE < 5.0D-03  dE < 5.0D-04  dE < 5.0D-05  dE < 5.0D-06
 ----- ----------- ------------- ------------- ------------- -------------
     1    5.00D-03             0             0             0             0
     2    5.00D-03             0             0             0             0
     3    5.00D-03             0             0             0             0

 # of small denominators (double excitations)
 State       dEmin  dE < 5.0D-03  dE < 5.0D-04  dE < 5.0D-05  dE < 5.0D-06
 ----- ----------- ------------- ------------- ------------- -------------
     1    5.00D-03             0             0             0             0
     2    5.00D-03             0             0             0             0
     3    5.00D-03             0             0             0             0

 *** Zeroth-Order Setup (Granovsky's zeroth-order vectors)
 Zeroth-order effective Hamiltonian
  (= Sum_i e(i)*<I|a+(i)a(i)|J> ):
                   1            2            3
     1 -7.495186D+00
     2  4.196574D-04-7.377532D+00
     3  2.155973D-03 9.706815D-05-7.291948D+00

 Zeroth-order vectors:
 State #    1
       MC st            1           3           2
       Coeff   -9.999D-01   1.060D-02   3.557D-03
 State #    2
       MC st            2           1           3
       Coeff   -1.000D+00  -3.544D-03   1.223D-03
 State #    3
       MC st            3           1           2
       Coeff    9.999D-01   1.061D-02   1.186D-03

 *** GMC-QDPT computation

 (Integral reading:  CPU/Wall time =           0.00 /           0.00 sec.)

 One-external:
   0 -ionized terms: CPU/Wall time =           0.03 /           0.03 sec.
 (-1)-ionized terms: CPU/Wall time =           0.09 /           0.09 sec.
 (+1)-ionized terms: CPU/Wall time =           0.02 /           0.02 sec.
 (+1)-ionized terms: CPU/Wall time =           0.01 /           0.00 sec.
 (+2)-ionized terms: CPU/Wall time =           0.00 /           0.01 sec.

 Internal:
 # of macro loops for internal contribution =         1 (input)
 Loop:    1
 Dimension of internal CISD space     =         0  (after screening)
 Space construction: CPU/Wall time =           0.02 /           0.01 sec.
 Internal terms:     CPU/Wall time =           0.00 /           0.00 sec.

 Two-external:
   0 -ionized terms: CPU/Wall time =           0.06 /           0.06 sec.
 (-1)-ionized terms: CPU/Wall time =           0.93 /           0.94 sec.
 (-2)-ionized terms: CPU/Wall time =           0.17 /           0.17 sec.

 Total time:         CPU/Wall time =           1.33 /           1.33 sec.

 ***                  ***
 *** GMC-QDPT Results ***
 ***                  ***

 Diagonal elements of effective Hamiltonian:
 Heff(  1) =   -56.00231615
 Heff(  2) =   -55.83774577
 Heff(  3) =   -55.76432771

 Off-diagonal elements of effective Hamiltonian:
                   1            2
     2 -5.563479D-04
     3  2.366577D-03 8.898962D-05

 ******** GMC-QDPT energies ********
 ----------------------------------------------------------------------------
   State                        1st order                           2nd order
 ----------------------------------------------------------------------------
     1     E(REF-CI)=      -55.9047993153   E(GMC-QDPT2)=      -56.0023415649
     2     E(REF-CI)=      -55.7284208934   E(GMC-QDPT2)=      -55.8377439810
     3     E(REF-CI)=      -55.6535447686   E(GMC-QDPT2)=      -55.7643040808
 ----------------------------------------------------------------------------

 Excitation energies (invalid if E(1)/=E(GS)):
 ----------------------------------------------------------------------------
   State                        1st order                           2nd order
 ----------------------------------------------------------------------------

     TZ Sorted GMC-PT ENERGIES:
         1      -56.0023415649
         2      -55.8377439810
         3      -55.7643040808
     2     E(REF-CI)=        4.7995038 eV   E(GMC-QDPT2)=        4.4789307 eV
     3     E(REF-CI)=        6.8369880 eV   E(GMC-QDPT2)=        6.4773332 eV
 ----------------------------------------------------------------------------

 Main characters of perturbed GMC-QDPT states:

 State #    1  Energy =     -56.002341565  S =  0.500

      Det      Coef    Occupancy (Ignoring core)
      ---      ----    --------- --------- -----
        1   -0.980048  11110001110000
      393   -0.078536  10110101010010
      717   -0.065759  11010011100001

 State #    2  Energy =     -55.837743981  S =  0.500

      Det      Coef    Occupancy (Ignoring core)
      ---      ----    --------- --------- -----
       71    0.984679  11110001011000
      822   -0.065463  11010011001001

 State #    3  Energy =     -55.764304081  S =  0.500

      Det      Coef    Occupancy (Ignoring core)
      ---      ----    --------- --------- -----
       36   -0.982609  11110001101000
      463   -0.078148  10110101001010

 <<<Max |V/de| = 2.619D-02  Thresh = 1.000D+00

 Oscillator strength (invalid if E(1)/=E(GS)):
 ----------------------------------------------------------------------------
   State                        1st order                           2nd order
 ----------------------------------------------------------------------------
     2     F(REF-CI)=        0.0000591469     F(GMC-PT2)=        0.0000559708
     3     F(REF-CI)=        0.0006185972     F(GMC-PT2)=        0.0005933015
 ----------------------------------------------------------------------------

 Dipole moment matrix elements, x, y, z, in A.U.
States    1    1        0.0575935792       -0.1138213293        0.7726647184
States    1    2       -0.0185305012       -0.0119295627        0.0049371420
States    1    3       -0.0245607735        0.0394847780        0.0397042426
States    2    1       -0.0185305012       -0.0119295627        0.0049371420
States    2    2       -0.0594968607        0.0981038607        0.2535079284
States    2    3        0.1902493200        0.0940795881       -0.0001096262
States    3    1       -0.0245607735        0.0394847780        0.0397042426
States    3    2        0.1902493200        0.0940795881       -0.0001096262
States    3    3        0.1937359768       -0.3691536432        0.2496039177

 Oscillator strength (valid only when positive): 
 ----------------------------------------------------------------------------
  States                        1st order                           2nd order
 ----------------------------------------------------------------------------
  1  1     F(REF-CI)=        0.0000000000     F(GMC-PT2)=        0.0000000000
  1  2     F(REF-CI)=       -0.0000591469     F(GMC-PT2)=       -0.0000559708
  1  3     F(REF-CI)=       -0.0006185972     F(GMC-PT2)=       -0.0005933015
  2  1     F(REF-CI)=        0.0000591469     F(GMC-PT2)=        0.0000559708
  2  2     F(REF-CI)=        0.0000000000     F(GMC-PT2)=        0.0000000000
  2  3     F(REF-CI)=       -0.0022489279     F(GMC-PT2)=       -0.0022054386
  3  1     F(REF-CI)=        0.0006185972     F(GMC-PT2)=        0.0005933015
  3  2     F(REF-CI)=        0.0022489279     F(GMC-PT2)=        0.0022054386
  3  3     F(REF-CI)=        0.0000000000     F(GMC-PT2)=        0.0000000000
 CPU     0: STEP CPU TIME=     1.82 TOTAL CPU TIME=         11.7 (      0.2 MIN)
 TOTAL WALL CLOCK TIME=         11.7 SECONDS, CPU UTILIZATION IS    99.91%

     !!! DIABATIZATION FOR REF CI STATES !!!

 *******************************************************
          $DMO GROUP FOUND IN THE INPUT.
        DIABATIZATION OF ADIABATIC STATES BEGINS.
     PROGRAMMED BY TAO ZENG (CARLETON UNIVERSITY).
               Email: toby.zeng@carleton.ca
     See T. Zeng, J. Chem. Phys. 2017, 146, 144103
 *******************************************************

 *************************************************************************
     STEP 1: TRANSFORMATION OF ADIABATIC STATES TO THE DMO REPRESENTATION
         See Atchity and Ruedenberg, J. Chem. Phys. 1999, 111, 2910
 *************************************************************************

Read in Diabatic Molecualr Orbitals:

                      1          2          3          4          5

    1  N  1  S    0.008609   0.000000   0.000000  -0.013219   0.279491
    2  N  1  S    0.442914  -0.000000   0.000000  -0.184329   0.867803
    3  N  1  S    0.276913   0.000000  -0.000000  -0.288315   0.144236
    4  N  1  X   -0.000000   0.493155  -0.024636  -0.000000  -0.000000
    5  N  1  Y    0.000000   0.024636   0.493155  -0.000000   0.000000
    6  N  1  Z    0.090197   0.000000   0.000000   0.593421   0.705309
    7  N  1  X   -0.000000   0.210628  -0.010522   0.000000   0.000000
    8  N  1  Y    0.000000   0.010522   0.210628  -0.000000  -0.000000
    9  N  1  Z   -0.004381   0.000000   0.000000   0.381592  -0.106092
   10  N  1 XX   -0.000457   0.010719  -0.000535  -0.012387   0.006153
   11  N  1 YY   -0.000457  -0.010719   0.000535  -0.012387   0.006153
   12  N  1 ZZ    0.000914  -0.000000   0.000000   0.024773  -0.012306
   13  N  1 XY    0.000000  -0.000618  -0.012377  -0.000000   0.000000
   14  N  1 XZ   -0.000000   0.026529  -0.001325  -0.000000   0.000000
   15  N  1 YZ    0.000000   0.001325   0.026529  -0.000000   0.000000
   16  H  2  S    0.194462  -0.176074   0.343485   0.112865  -0.523343
   17  H  2  S    0.003574  -0.023812   0.046452   0.024014  -0.054445
   18  H  2  X    0.018760   0.009101   0.022834   0.009336  -0.039151
   19  H  2  Y   -0.032493   0.022287  -0.020044  -0.016171   0.067811
   20  H  2  Z   -0.009251   0.008464  -0.016511   0.018769  -0.010566
   21  H  3  S    0.194462  -0.209430  -0.324227   0.112865  -0.523343
   22  H  3  S    0.003574  -0.028322  -0.043847   0.024014  -0.054445
   23  H  3  X    0.018760   0.006781  -0.023627   0.009336  -0.039151
   24  H  3  Y    0.032493  -0.024174  -0.017723   0.016171  -0.067811
   25  H  3  Z   -0.009251   0.010067   0.015585   0.018769  -0.010566
   26  H  4  S    0.194462   0.385503  -0.019258   0.112865  -0.523343
   27  H  4  S    0.003574   0.052134  -0.002604   0.024014  -0.054445
   28  H  4  X   -0.037519  -0.032295   0.001613  -0.018672   0.078302
   29  H  4  Y    0.000000   0.001067   0.021353  -0.000000   0.000000
   30  H  4  Z   -0.009251  -0.018530   0.000926   0.018769  -0.010566

                      6          7

    1  N  1  S    0.000000  -0.000000
    2  N  1  S    0.000000  -0.000000
    3  N  1  S   -0.000000   0.000000
    4  N  1  X   -0.930415  -0.002083
    5  N  1  Y   -0.002083   0.930415
    6  N  1  Z   -0.000000   0.000000
    7  N  1  X   -0.046866  -0.000105
    8  N  1  Y   -0.000105   0.046866
    9  N  1  Z   -0.000000   0.000000
   10  N  1 XX    0.001538   0.000003
   11  N  1 YY   -0.001538  -0.000003
   12  N  1 ZZ   -0.000000   0.000000
   13  N  1 XY   -0.000004   0.001776
   14  N  1 XZ    0.039985   0.000090
   15  N  1 YZ    0.000090  -0.039985
   16  H  2  S   -0.362630  -0.631354
   17  H  2  S   -0.065964  -0.114846
   18  H  2  X    0.002763  -0.037520
   19  H  2  Y    0.037435   0.040736
   20  H  2  Z    0.001882   0.003276
   21  H  3  S   -0.365454   0.629724
   22  H  3  S   -0.066477   0.114549
   23  H  3  X    0.002595   0.037532
   24  H  3  Y   -0.037617   0.040567
   25  H  3  Z    0.001896  -0.003268
   26  H  4  S    0.728084   0.001630
   27  H  4  S    0.132441   0.000297
   28  H  4  X   -0.062317  -0.000140
   29  H  4  Y    0.000055  -0.024345
   30  H  4  Z   -0.003778  -0.000008

NUMBER OF SUB ACTIVE SPACES:   1
ROTATE ACTIVE MOS TO DMOS IN EACH SUB-SPACE

SPACE  1:

OVERLAP BETWEEN ORTHONORMAL AND PRE-ORTHONORMAL REF. DMOS

             1           2           3           4           5

    1    0.9975810   0.0034593  -0.0084785  -0.0008681  -0.0001944
    2    0.0034593   0.9801955  -0.0236928   0.0057535  -0.0126006
    3   -0.0084785  -0.0236928   1.0107591  -0.0133663   0.0282474
    4   -0.0008681   0.0057535  -0.0133663   0.9993243  -0.0011443
    5   -0.0001944  -0.0126006   0.0282474  -0.0011443   1.0170654
    6   -0.0012781  -0.0140052  -0.0210359   0.0082423  -0.0050315
    7   -0.0024784   0.0213374  -0.0107545   0.0162364  -0.0068874

             6           7

    1   -0.0012781  -0.0024784
    2   -0.0140052   0.0213374
    3   -0.0210359  -0.0107545
    4    0.0082423   0.0162364
    5   -0.0050315  -0.0068874
    6    1.0111110  -0.0106706
    7   -0.0106706   1.0005748
REFERENCE DMOS AFTER ORTHONORMALIZATION:

                      1          2          3          4          5

    1  N  1  S    0.008602   0.003374  -0.007659  -0.013071   0.275064
    2  N  1  S    0.443804   0.009833  -0.022112  -0.183649   0.853952
    3  N  1  S    0.277328   0.002321  -0.005257  -0.288320   0.141779
    4  N  1  X   -0.003195   0.489784  -0.032193   0.004659   0.002290
    5  N  1  Y    0.006518   0.017032   0.498780  -0.008776  -0.007226
    6  N  1  Z    0.090946   0.004942  -0.010749   0.594616   0.694480
    7  N  1  X   -0.000867   0.214259  -0.006440  -0.000874   0.002582
    8  N  1  Y    0.001858   0.014723   0.209540   0.001880  -0.005280
    9  N  1  Z   -0.004024  -0.003284   0.007705   0.381990  -0.104201
   10  N  1 XX   -0.000509   0.011102  -0.000574  -0.012475   0.006198
   11  N  1 YY   -0.000431  -0.010820  -0.000083  -0.012322   0.005900
   12  N  1 ZZ    0.000940  -0.000282   0.000657   0.024797  -0.012098
   13  N  1 XY   -0.000097  -0.000961  -0.012268  -0.000183   0.000339
   14  N  1 XZ   -0.000044   0.027650   0.000146  -0.000485   0.000535
   15  N  1 YZ    0.000113   0.002830   0.025935   0.000974  -0.000952
   16  H  2  S    0.196386  -0.171147   0.339757   0.131318  -0.532020
   17  H  2  S    0.003683  -0.022541   0.044779   0.027119  -0.056132
   18  H  2  X    0.018884   0.010093   0.023871   0.010167  -0.039260
   19  H  2  Y   -0.032677   0.022980  -0.020473  -0.017517   0.067966
   20  H  2  Z   -0.009412   0.008020  -0.015650   0.018453  -0.009812
   21  H  3  S    0.194220  -0.247776  -0.310473   0.102721  -0.506459
   22  H  3  S    0.003545  -0.034155  -0.042569   0.022307  -0.052307
   23  H  3  X    0.018700   0.005031  -0.021499   0.008381  -0.037560
   24  H  3  Y    0.032581  -0.027526  -0.016205   0.015740  -0.066458
   25  H  3  Z   -0.009165   0.010555   0.016144   0.018960  -0.010702
   26  H  4  S    0.194659   0.396427   0.022419   0.104644  -0.506566
   27  H  4  S    0.003599   0.054328   0.003219   0.022623  -0.052272
   28  H  4  X   -0.037602  -0.032698  -0.003134  -0.017985   0.076342
   29  H  4  Y    0.000111   0.002111   0.020953   0.000658  -0.000717
   30  H  4  Z   -0.009191  -0.019159   0.000850   0.018919  -0.010652

                      6          7

    1  N  1  S    0.001395   0.001987
    2  N  1  S    0.006085   0.009575
    3  N  1  S    0.003395   0.006272
    4  N  1  X   -0.914347  -0.022692
    5  N  1  Y    0.018465   0.935184
    6  N  1  Z   -0.001483  -0.004880
    7  N  1  X   -0.043553  -0.005178
    8  N  1  Y    0.004935   0.048768
    9  N  1  Z   -0.003595  -0.006811
   10  N  1 XX    0.001795   0.000024
   11  N  1 YY   -0.001539   0.000449
   12  N  1 ZZ   -0.000256  -0.000473
   13  N  1 XY   -0.000252   0.001666
   14  N  1 XZ    0.039938  -0.000061
   15  N  1 YZ    0.000235  -0.039764
   16  H  2  S   -0.364096  -0.632880
   17  H  2  S   -0.066332  -0.115342
   18  H  2  X    0.002716  -0.037816
   19  H  2  Y    0.037789   0.041076
   20  H  2  Z    0.001462   0.002560
   21  H  3  S   -0.367870   0.622714
   22  H  3  S   -0.066347   0.113333
   23  H  3  X    0.002346   0.036848
   24  H  3  Y   -0.037918   0.039920
   25  H  3  Z    0.002099  -0.003699
   26  H  4  S    0.722875  -0.003577
   27  H  4  S    0.131364  -0.000145
   28  H  4  X   -0.061665   0.000591
   29  H  4  Y    0.000255  -0.024163
   30  H  4  Z   -0.004204  -0.000039

 -------------------------------------------
       MAXIMIZING MORMO OVERLAP TERM        
 -------------------------------------------
   SWEEP    VALUE       PROGRESS
     0     5.67491
     1     6.96832     1.29340704
     2     6.99432     0.02600617
     3     6.99432     0.00000024
     4     6.99432     0.00000000
     5     6.99432     0.00000000
 THE ROTATION IS DONE
ACTIVE ORBITALS AFTER MORMO:

                      1          2          3          4          5

    1  N  1  S    0.008366   0.004388  -0.010116  -0.012954   0.267822
    2  N  1  S    0.441308   0.008986  -0.021198  -0.184535   0.844479
    3  N  1  S    0.285325  -0.003879   0.010971  -0.286605   0.152496
    4  N  1  X   -0.002155   0.483443  -0.036711   0.005925   0.000191
    5  N  1  Y    0.003961   0.012189   0.497813  -0.011918  -0.002688
    6  N  1  Z    0.089524   0.007014  -0.015648   0.594832   0.690379
    7  N  1  X   -0.002876   0.227482   0.012309  -0.008023   0.008290
    8  N  1  Y    0.006624   0.033636   0.200948   0.016430  -0.017215
    9  N  1  Z    0.000162  -0.009436   0.022115   0.381835  -0.098942
   10  N  1 XX   -0.001036   0.011735   0.000803  -0.011893   0.014334
   11  N  1 YY    0.000133  -0.011522  -0.001286  -0.012581  -0.005018
   12  N  1 ZZ    0.000902  -0.000213   0.000482   0.024474  -0.009316
   13  N  1 XY   -0.001250  -0.002481  -0.011799   0.000585   0.021777
   14  N  1 XZ    0.000421   0.026334   0.000275  -0.000291  -0.008886
   15  N  1 YZ   -0.000661   0.002824   0.024487   0.000371   0.017950
   16  H  2  S    0.190471  -0.175368   0.344187   0.121144  -0.527364
   17  H  2  S    0.001393  -0.020074   0.040570   0.026322  -0.054190
   18  H  2  X    0.019365   0.007537   0.024398   0.008986  -0.038104
   19  H  2  Y   -0.032868   0.023377  -0.022436  -0.015312   0.065174
   20  H  2  Z   -0.006754   0.007377  -0.014182   0.019482  -0.010247
   21  H  3  S    0.193714  -0.223781  -0.317953   0.107208  -0.509854
   22  H  3  S    0.003943  -0.044785  -0.046230   0.023481  -0.055200
   23  H  3  X    0.012913   0.010081  -0.018634   0.008375  -0.036335
   24  H  3  Y    0.033489  -0.024493  -0.019442   0.016586  -0.065770
   25  H  3  Z   -0.010466   0.009559   0.018028   0.018479  -0.011096
   26  H  4  S    0.193562   0.388511  -0.003229   0.108079  -0.508726
   27  H  4  S    0.003772   0.063019   0.009958   0.023840  -0.055025
   28  H  4  X   -0.035495  -0.031013   0.002400  -0.018446   0.074960
   29  H  4  Y    0.005892   0.007561   0.020643   0.001180  -0.001874
   30  H  4  Z   -0.010181  -0.019849   0.002890   0.018529  -0.011359

                      6          7

    1  N  1  S    0.013319   0.024489
    2  N  1  S    0.029578   0.054841
    3  N  1  S   -0.026260  -0.051268
    4  N  1  X   -0.915049  -0.017947
    5  N  1  Y    0.013746   0.930297
    6  N  1  Z   -0.010813  -0.024265
    7  N  1  X   -0.041065  -0.018100
    8  N  1  Y    0.017791   0.060282
    9  N  1  Z    0.002171   0.005907
   10  N  1 XX    0.008216  -0.016926
   11  N  1 YY   -0.010281   0.012967
   12  N  1 ZZ    0.002065   0.003958
   13  N  1 XY   -0.017181  -0.006003
   14  N  1 XZ    0.035565   0.009489
   15  N  1 YZ   -0.009199  -0.045146
   16  H  2  S   -0.366083  -0.634471
   17  H  2  S   -0.064821  -0.112444
   18  H  2  X   -0.004836  -0.035911
   19  H  2  Y    0.035768   0.045206
   20  H  2  Z   -0.001712  -0.001762
   21  H  3  S   -0.350315   0.625568
   22  H  3  S   -0.074681   0.121511
   23  H  3  X    0.011395   0.036672
   24  H  3  Y   -0.036308   0.040442
   25  H  3  Z    0.010898  -0.000580
   26  H  4  S    0.716808   0.013929
   27  H  4  S    0.142359  -0.002906
   28  H  4  X   -0.059501  -0.005182
   29  H  4  Y    0.004866  -0.029174
   30  H  4  Z   -0.005395   0.009702

Actually Used Diabatic Molecualr Orbitals:

                      1          2          3          4          5

    1  N  1  S    0.008366   0.004388  -0.010116  -0.012954   0.267822
    2  N  1  S    0.441308   0.008986  -0.021198  -0.184535   0.844479
    3  N  1  S    0.285325  -0.003879   0.010971  -0.286605   0.152496
    4  N  1  X   -0.002155   0.483443  -0.036711   0.005925   0.000191
    5  N  1  Y    0.003961   0.012189   0.497813  -0.011918  -0.002688
    6  N  1  Z    0.089524   0.007014  -0.015648   0.594832   0.690379
    7  N  1  X   -0.002876   0.227482   0.012309  -0.008023   0.008290
    8  N  1  Y    0.006624   0.033636   0.200948   0.016430  -0.017215
    9  N  1  Z    0.000162  -0.009436   0.022115   0.381835  -0.098942
   10  N  1 XX   -0.001036   0.011735   0.000803  -0.011893   0.014334
   11  N  1 YY    0.000133  -0.011522  -0.001286  -0.012581  -0.005018
   12  N  1 ZZ    0.000902  -0.000213   0.000482   0.024474  -0.009316
   13  N  1 XY   -0.001250  -0.002481  -0.011799   0.000585   0.021777
   14  N  1 XZ    0.000421   0.026334   0.000275  -0.000291  -0.008886
   15  N  1 YZ   -0.000661   0.002824   0.024487   0.000371   0.017950
   16  H  2  S    0.190471  -0.175368   0.344187   0.121144  -0.527364
   17  H  2  S    0.001393  -0.020074   0.040570   0.026322  -0.054190
   18  H  2  X    0.019365   0.007537   0.024398   0.008986  -0.038104
   19  H  2  Y   -0.032868   0.023377  -0.022436  -0.015312   0.065174
   20  H  2  Z   -0.006754   0.007377  -0.014182   0.019482  -0.010247
   21  H  3  S    0.193714  -0.223781  -0.317953   0.107208  -0.509854
   22  H  3  S    0.003943  -0.044785  -0.046230   0.023481  -0.055200
   23  H  3  X    0.012913   0.010081  -0.018634   0.008375  -0.036335
   24  H  3  Y    0.033489  -0.024493  -0.019442   0.016586  -0.065770
[...]

 State #    2  Energy =     -55.818299647

      Det      Coef        Coefp    Occupancy (Ignoring core)
      ---      ----        ----    --------- --------- -----
       71   -0.843094    0.843094  2+22000
       36    0.506778    0.506778  22+2000
      822    0.055765   -0.055765  2+02002
      463   -0.040270    0.040270  20+2020
      111    0.030268   -0.030268  +22-0+0
        1    0.029975   -0.029975  222+000
      112   -0.028586   -0.028586  +2-20+0
      253    0.028249    0.028249  20+2-+0
      323   -0.027754    0.027754  +022-+0
      320    0.026920    0.026920  0+22200
      813    0.026080   -0.026080  20+20+-
      183   -0.023815    0.023815  202+-+0
      177    0.023740   -0.023740  2+20200
        6    0.023239   -0.023239  22200+0
      248    0.021741   -0.021741  2+02200
      892    0.020679    0.020679  ++-2002
       39   -0.020591   -0.020591  2-+2+00
      824   -0.020582   -0.020582  -++2002
      121    0.020370   -0.020370  +22-00+

 State #    3  Energy =     -55.785017285

      Det      Coef        Coefp    Occupancy (Ignoring core)
      ---      ----        ----    --------- --------- -----
       36   -0.838527   -0.838527  22+2000
       71   -0.508609    0.508609  2+22000
        1   -0.069613    0.069613  222+000
      463    0.066666   -0.066666  20+2020
      822    0.034285   -0.034285  2+02002
      121   -0.031820    0.031820  +22-00+
      113   -0.030453    0.030453  +-220+0
      460   -0.028370   -0.028370  -++2+-0
      288   -0.027440   -0.027440  +-+2-+0
      285    0.027019   -0.027019  02+2200
       74   -0.026025    0.026025  2022+00
      472   -0.025846   -0.025846  2+020-+
      458   -0.025287    0.025287  2+02+-0
       51   -0.024199    0.024199  22+-00+
      249    0.023142   -0.023142  20+2200
      148   -0.022882   -0.022882  2-++-+0
      716    0.022355    0.022355  22+0002
       52    0.022156   -0.022156  220200+
      142    0.021914    0.021914  22+0200
      457   -0.021039    0.021039  2++-+-0

 ---------------------------------------
    -DIABATIC STATES IN PROTOTYPES-     
 ---------------------------------------

     STATE:    1
 Group Ref#    Coefficients
     1    1    0.993062
     2    2    0.000161
     3    3   -0.000243

WEIGHT OF LISTED PROTOTYPES:   98.62%

     STATE:    2
 Group Ref#    Coefficients
     1    1    0.000161
     2    2    0.992597
     3    3    0.000596

WEIGHT OF LISTED PROTOTYPES:   98.52%

     STATE:    3
 Group Ref#    Coefficients
     1    1   -0.000243
     2    2    0.000596
     3    3    0.992482

WEIGHT OF LISTED PROTOTYPES:   98.50%

 --------------------------------------------------
 IN DIRECT MAX. DIABATIZATION FOR GMC-QDPT

 DIRECT MAXIMIZATION (DM) WITHOUT TRUNCATING ADIABATS
 EXPANSIONS INTO THE REFERENCE CONFIGURATION SPACE
 --------------------------------------------------

 -------------------------------------------
 - DM DIABT PT HAMILTONIAN MATRIX ELEMENTS -
 -------------------------------------------
                                            
 --- DIABATIC ENERGIES (DIAGONAL ELEMENT) ---       HARTREE            EV
 STATE #  1'S GMC-PT-LEVEL DIABATIC ENERGY=     -56.001072692       0.000000000
 STATE #  2'S GMC-PT-LEVEL DIABATIC ENERGY=     -55.818299645       4.973507922
 STATE #  3'S GMC-PT-LEVEL DIABATIC ENERGY=     -55.785017290       5.879166942

 --- DIABATIC COUPLINGS (OFF DIAGONAL ELEMENTS)---  HATREE            EV
 STATE #  1 &  2'S GMC-PT-LEVEL COUPLING  =      -0.007659110      -0.208414997
 STATE #  1 &  3'S GMC-PT-LEVEL COUPLING  =       0.015517252       0.422245923
 STATE #  2 &  3'S GMC-PT-LEVEL COUPLING  =      -0.032034634      -0.871706783

 ---------------------------------------
     - ROTATION TO DIABATIC STATES -    
 ---------------------------------------
 ROWS=ADIABATIC, COLUMNS=DIABATIC STATES

             1           2           3

    1    0.9973186   0.0298762  -0.0668060
    2    0.0090144   0.8557696   0.5172786
    3    0.0726249  -0.5164937   0.8532056

 ---------------------------------------
          - DIABATIC STATES -           
 ---------------------------------------

 State #    1  Energy =     -56.001072692

      Det      Coef        Coefp    Occupancy (Ignoring core)
      ---      ----        ----    --------- --------- -----
        1    0.976399   -0.976399  222+000
      393   -0.073437   -0.073437  202+020
      717   -0.069146   -0.069146  220+002
        8   -0.063105    0.063105  2-2+0+0
      708    0.037805   -0.037805  2-++0+-
      402    0.037121   -0.037121  2+-+0-+
       17    0.036159    0.036159  22-+00+
        3    0.035068    0.035068  22-++00
      386    0.034839   -0.034839  2+2+0-0
      141   -0.034245   -0.034245  22++-00
      215   -0.034235   -0.034235  022+200
      218    0.033206   -0.033206  +-2+-+0
      390    0.032900   -0.032900  -+2++-0
      227   -0.032358   -0.032358  +2-+-0+
      705   -0.032177   -0.032177  -2+++0-
       76    0.028266    0.028266  2+2-0+0
        2    0.028022   -0.028022  2220+00
      212    0.027929    0.027929  +220200
       51   -0.026573    0.026573  22+-00+
      113   -0.026219    0.026219  +-220+0
       18    0.025667   -0.025667  2-2+00+
      122    0.024760    0.024760  +2-200+
      106   -0.023148   -0.023148  +222000
      736   -0.022949    0.022949  2+2+00-
      424   -0.022381   -0.022381  +-2++-0
      143   -0.022219   -0.022219  220+200
      179   -0.022075   -0.022075  202+200
      387   -0.022032    0.022032  2+20+-0
      184   -0.021809   -0.021809  -+2+-+0
      702    0.021567    0.021567  22+0+0-
      773    0.021477   -0.021477  +2-++0-
       16    0.021217   -0.021217  222000+
      159    0.020915   -0.020915  -2++-0+
        7   -0.020711   -0.020711  22-+0+0
      351    0.020605    0.020605  22++0-0
      742   -0.020389   -0.020389  2+-+0+-
      368   -0.020188   -0.020188  2-++0-+

 State #    2  Energy =     -55.818299645

      Det      Coef        Coefp    Occupancy (Ignoring core)
      ---      ----        ----    --------- --------- -----
       71   -0.978899    0.978899  2+22000
      822    0.068285   -0.068285  2+02002
       36    0.047398    0.047398  22+2000
       74    0.040982   -0.040982  2022+00
      813    0.040757   -0.040757  20+20+-
       73    0.039860   -0.039860  2+-2+00
      246   -0.038917   -0.038917  2++2-00
      111    0.038441   -0.038441  +22-0+0
       76    0.034440    0.034440  2+2-0+0
      320    0.033783    0.033783  0+22200
      323   -0.033242    0.033242  +022-+0
      810   -0.032662   -0.032662  -++2+0-
      332   -0.031539    0.031539  ++-2-0+
      180   -0.028235    0.028235  -+2+200
      317    0.027992   -0.027992  ++2-200
      113    0.027237   -0.027237  +-220+0
      736   -0.027043    0.027043  2+2+00-
       86    0.026211    0.026211  2+2-00+
      177    0.026166   -0.026166  2+20200
      456    0.025457    0.025457  2++20-0
      183   -0.025399    0.025399  202+-+0
        6    0.025185   -0.025185  22200+0
       77   -0.024991    0.024991  2+-20+0
       99   -0.024144    0.024144  20-20++
       38   -0.024043    0.024043  2202+00
      391    0.023933   -0.023933  2+20020
      248    0.023403   -0.023403  2+02200
      386   -0.022949    0.022949  2+2+0-0
      807   -0.022800    0.022800  2++-+0-
      192   -0.022568    0.022568  2+-+-0+
      122    0.022529    0.022529  +2-200+
      751    0.021241   -0.021241  2+20002
      878    0.021060    0.021060  ++-2+0-
      264    0.020342   -0.020342  -++2-0+
       51    0.020150   -0.020150  22+-00+

 State #    3  Energy =     -55.785017290

      Det      Coef        Coefp    Occupancy (Ignoring core)
      ---      ----        ----    --------- --------- -----
       36   -0.979234   -0.979234  22+2000
      463    0.073620   -0.073620  20+2020
       71   -0.046886    0.046886  2+22000
      472   -0.040765   -0.040765  2+020-+
      121   -0.040455    0.040455  +22-00+
      285    0.034046   -0.034046  02+2200
      460   -0.033688   -0.033688  -++2+-0
      288   -0.033064   -0.033064  +-+2-+0
       38   -0.032208    0.032208  2202+00
      297    0.031860   -0.031860  +202-0+
      456   -0.031151   -0.031151  2++20-0
       73    0.028743   -0.028743  2+-2+00
      112   -0.028470   -0.028470  +2-20+0
      145   -0.028224   -0.028224  -2++200
      282    0.028076    0.028076  +2+-200
       53   -0.026256   -0.026256  2-+200+
      142    0.026134    0.026134  22+0200
       16   -0.025822    0.025822  222000+
      806    0.025683    0.025683  2++200-
       52    0.025457   -0.025457  220200+
      123    0.024983   -0.024983  +-2200+
      701   -0.024345   -0.024345  22++00-
       64    0.024321   -0.024321  2-020++
      249    0.024200   -0.024200  20+2200
       51    0.024189   -0.024189  22+-00+
      157    0.023844   -0.023844  220+-0+
      457   -0.023808    0.023808  2++-+-0
      716    0.023799    0.023799  22+0002
      148   -0.023701   -0.023701  2-++-+0
       86    0.023614    0.023614  2+2-00+
       43    0.022371    0.022371  2-+20+0
      494    0.022050   -0.022050  +-+2+-0
      106   -0.021897   -0.021897  +222000
      254    0.021779   -0.021779  -++2-+0
      356    0.021441    0.021441  22+0020
      771    0.021437    0.021437  +22+00-

 ---------------------------------------
      - DIABATIC STATES IN CMO -        
 ---------------------------------------

 State #    1  Energy =     -56.001072692

      Det      Coef        Coefp    Occupancy (Ignoring core)
      ---      ----        ----    --------- --------- -----
        1    0.977122   -0.977122  222+000
      393   -0.078286   -0.078286  202+020
       36   -0.074705   -0.074705  22+2000
      717   -0.067119   -0.067119  220+002
        8   -0.045466    0.045466  2-2+0+0
       17    0.039069    0.039069  22-+00+
      390    0.032701   -0.032701  -+2++-0
      218    0.032407   -0.032407  +-2+-+0
      215   -0.031730   -0.031730  022+200
       76    0.029227    0.029227  2+2-0+0
      402    0.028869   -0.028869  2+-+0-+
      388    0.028783    0.028783  2+-++-0
      708    0.028706   -0.028706  2-++0+-
      113   -0.026711    0.026711  +-220+0
        2    0.026575   -0.026575  2220+00
      179   -0.026252   -0.026252  202+200
      148    0.026134    0.026134  2-++-+0
      106   -0.025843   -0.025843  +222000
      787    0.024434   -0.024434  +2-+002
      387   -0.024206    0.024206  2+20+-0
      719   -0.024075   -0.024075  -2++002
       51   -0.022921    0.022921  22+-00+
      424   -0.022852   -0.022852  +-2++-0
      143   -0.022496   -0.022496  220+200
      184   -0.022308   -0.022308  -+2+-+0
      716    0.022212    0.022212  22+0002
        3   -0.021684   -0.021684  22-++00
      705   -0.021244   -0.021244  -2+++0-
      212    0.021155    0.021155  +220200
      122    0.021066    0.021066  +2-200+
      227   -0.020509   -0.020509  +2-+-0+

 State #    2  Energy =     -55.818299645

      Det      Coef        Coefp    Occupancy (Ignoring core)
      ---      ----        ----    --------- --------- -----
       71   -0.843094    0.843094  2+22000
       36    0.506778    0.506778  22+2000
      822    0.055765   -0.055765  2+02002
      463   -0.040270    0.040270  20+2020
      111    0.030268   -0.030268  +22-0+0
        1    0.029975   -0.029975  222+000
      112   -0.028586   -0.028586  +2-20+0
      253    0.028249    0.028249  20+2-+0
      323   -0.027754    0.027754  +022-+0
      320    0.026920    0.026920  0+22200
      813    0.026080   -0.026080  20+20+-
      183   -0.023815    0.023815  202+-+0
      177    0.023740   -0.023740  2+20200
        6    0.023239   -0.023239  22200+0
      248    0.021741   -0.021741  2+02200
      892    0.020679    0.020679  ++-2002
       39   -0.020591   -0.020591  2-+2+00
      824   -0.020582   -0.020582  -++2002
      121    0.020370   -0.020370  +22-00+

 State #    3  Energy =     -55.785017290

      Det      Coef        Coefp    Occupancy (Ignoring core)
      ---      ----        ----    --------- --------- -----
       36   -0.838527   -0.838527  22+2000
       71   -0.508609    0.508609  2+22000
        1   -0.069613    0.069613  222+000
      463    0.066666   -0.066666  20+2020
      822    0.034285   -0.034285  2+02002
      121   -0.031820    0.031820  +22-00+
      113   -0.030453    0.030453  +-220+0
      460   -0.028370   -0.028370  -++2+-0
      288   -0.027440   -0.027440  +-+2-+0
      285    0.027019   -0.027019  02+2200
       74   -0.026025    0.026025  2022+00
      472   -0.025846   -0.025846  2+020-+
      458   -0.025287    0.025287  2+02+-0
       51   -0.024199    0.024199  22+-00+
      249    0.023142   -0.023142  20+2200
      148   -0.022882   -0.022882  2-++-+0
      716    0.022355    0.022355  22+0002
       52    0.022156   -0.022156  220200+
      142    0.021914    0.021914  22+0200
      457   -0.021039    0.021039  2++-+-0

 ---------------------------------------
    -DIABATIC STATES IN PROTOTYPES-     
 ---------------------------------------

     STATE:    1
 Group Ref#    Coefficients
     1    1    0.993062
     2    2    0.000161
     3    3   -0.000243

WEIGHT OF LISTED PROTOTYPES:   98.62%

     STATE:    2
 Group Ref#    Coefficients
     1    1    0.000161
     2    2    0.992597
     3    3    0.000596

WEIGHT OF LISTED PROTOTYPES:   98.52%

     STATE:    3
 Group Ref#    Coefficients
     1    1   -0.000243
     2    2    0.000596
     3    3    0.992482

WEIGHT OF LISTED PROTOTYPES:   98.50%

     DIRECT MAX. DIABATIZATION FINISHED    
 CPU     0: STEP CPU TIME=     0.25 TOTAL CPU TIME=         11.9 (      0.2 MIN)
 TOTAL WALL CLOCK TIME=         11.9 SECONDS, CPU UTILIZATION IS   100.00%

DIABATS FOR SPIN-ORBIT CALCULATION ARE READY

TRANSITION DIPOLES BETWEEN ADIABATS (in A.U.):

STATE PAIR      X         Y         Z
    1    1  0.057594 -0.113821  0.772665
    2    1 -0.018531 -0.011930  0.004937
    2    2 -0.059497  0.098104  0.253508
    3    1 -0.024561  0.039485  0.039704
    3    2  0.190249  0.094080 -0.000110
    3    3  0.193736 -0.369154  0.249604


TRANSITION DIPOLES BETWEEN DIABATS (in A.U.):

STATE PAIR      X         Y         Z
    1    1  0.054660 -0.109522  0.775704
    2    1  0.001706 -0.013817 -0.000542
    2    2 -0.160208 -0.111728  0.252054
    3    1 -0.013828  0.016684  0.001300
    3    2 -0.024447  0.252755  0.002810
    3    3  0.297381 -0.163620  0.248019

TRANSITION DIPOLES BETWEEN DIRECT MAX. DIABATS (in A.U.):

STATE PAIR      X         Y         Z
    1    1  0.054660 -0.109522  0.775704
    2    1  0.001706 -0.013817 -0.000542
    2    2 -0.160208 -0.111728  0.252054
    3    1 -0.013828  0.016684  0.001300
    3    2 -0.024447  0.252755  0.002810
    3    3  0.297381 -0.163620  0.248019
 No $TRANST Group Found.
 Quit without doing spin-orbit coupling
 ..... DONE WITH MP2 ENERGY .....
 CPU     0: STEP CPU TIME=     0.00 TOTAL CPU TIME=         11.9 (      0.2 MIN)
 TOTAL WALL CLOCK TIME=         11.9 SECONDS, CPU UTILIZATION IS   100.00%
            100000000  WORDS OF DYNAMIC MEMORY USED
 EXECUTION OF GAMESS TERMINATED NORMALLY Wed Nov 16 19:08:50 2022
 DDI: 715512 bytes (0.7 MB / 0 MWords) used by master data server.

 ----------------------------------------
 CPU timing information for all processes
 ========================================
 0: 11.664 + 0.280 = 11.944
 ----------------------------------------
Note: The following floating-point exceptions are signalling: IEEE_DENORMAL
 ddikick.x: exited gracefully.
unset echo
----- accounting info -----
Files used on the master node io002 were:
-rw-r--r-- 1 bsonghao nooijen   20727 Nov 16 19:08 /scratch/bsonghao/nh3_diabatization_2d_at_mode_7_8_dist-0.2_0.1.F05
-rw-r--r-- 1 bsonghao nooijen  363520 Nov 16 19:08 /scratch/bsonghao/nh3_diabatization_2d_at_mode_7_8_dist-0.2_0.1.F09
-rw-r--r-- 1 bsonghao nooijen 1995920 Nov 16 19:08 /scratch/bsonghao/nh3_diabatization_2d_at_mode_7_8_dist-0.2_0.1.F10
-rw-r--r-- 1 bsonghao nooijen  131264 Nov 16 19:08 /scratch/bsonghao/nh3_diabatization_2d_at_mode_7_8_dist-0.2_0.1.F13
-rw-r--r-- 1 bsonghao nooijen  180312 Nov 16 19:08 /scratch/bsonghao/nh3_diabatization_2d_at_mode_7_8_dist-0.2_0.1.F15
-rw-r--r-- 1 bsonghao nooijen       0 Nov 16 19:08 /scratch/bsonghao/nh3_diabatization_2d_at_mode_7_8_dist-0.2_0.1.F16
-rw-r--r-- 1 bsonghao nooijen    9808 Nov 16 19:08 /scratch/bsonghao/nh3_diabatization_2d_at_mode_7_8_dist-0.2_0.1.F70
-rw-r--r-- 1 bsonghao nooijen    9808 Nov 16 19:08 /scratch/bsonghao/nh3_diabatization_2d_at_mode_7_8_dist-0.2_0.1.F71
-rw-r--r-- 1 bsonghao nooijen   19608 Nov 16 19:08 /scratch/bsonghao/nh3_diabatization_2d_at_mode_7_8_dist-0.2_0.1.F72
-rw-r--r-- 1 bsonghao nooijen   19608 Nov 16 19:08 /scratch/bsonghao/nh3_diabatization_2d_at_mode_7_8_dist-0.2_0.1.F73
-rw-r--r-- 1 bsonghao nooijen 1920824 Nov 16 19:08 /scratch/bsonghao/nh3_diabatization_2d_at_mode_7_8_dist-0.2_0.1.F74
-rw-r--r-- 1 bsonghao nooijen       0 Nov 16 19:08 /scratch/bsonghao/nh3_diabatization_2d_at_mode_7_8_dist-0.2_0.1.F75
-rw-r--r-- 1 bsonghao nooijen   58848 Nov 16 19:08 /scratch/bsonghao/nh3_diabatization_2d_at_mode_7_8_dist-0.2_0.1.F76
-rw-r--r-- 1 bsonghao nooijen       0 Nov 16 19:08 /scratch/bsonghao/nh3_diabatization_2d_at_mode_7_8_dist-0.2_0.1.F77
-rw-r--r-- 1 bsonghao nooijen    1864 Nov 16 19:08 /scratch/bsonghao/nh3_diabatization_2d_at_mode_7_8_dist-0.2_0.1.F78
-rw-r--r-- 1 bsonghao nooijen   39208 Nov 16 19:08 /scratch/bsonghao/nh3_diabatization_2d_at_mode_7_8_dist-0.2_0.1.F79
-rw-r--r-- 1 bsonghao nooijen     104 Nov 16 19:08 /scratch/bsonghao/nh3_diabatization_2d_at_mode_7_8_dist-0.2_0.1.F80
-rw-r--r-- 1 bsonghao nooijen   13472 Nov 16 19:08 /scratch/bsonghao/nh3_diabatization_2d_at_mode_7_8_dist-0.2_0.1.F81
-rw-r--r-- 1 bsonghao nooijen      16 Nov 16 19:08 /scratch/bsonghao/nh3_diabatization_2d_at_mode_7_8_dist-0.2_0.1.F82
-rw-r--r-- 1 bsonghao nooijen   19216 Nov 16 19:08 /scratch/bsonghao/nh3_diabatization_2d_at_mode_7_8_dist-0.2_0.1.F83
-rw-r--r-- 1 bsonghao nooijen   29712 Nov 16 19:08 /scratch/bsonghao/nh3_diabatization_2d_at_mode_7_8_dist-0.2_0.1.F84
-rw-r--r-- 1 bsonghao nooijen  401576 Nov 16 19:08 /scratch/bsonghao/nh3_diabatization_2d_at_mode_7_8_dist-0.2_0.1.F85
-rw-r--r-- 1 bsonghao nooijen  903672 Nov 16 19:08 /scratch/bsonghao/nh3_diabatization_2d_at_mode_7_8_dist-0.2_0.1.F86
-rw-r--r-- 1 bsonghao nooijen     656 Nov 16 19:08 /scratch/bsonghao/nh3_diabatization_2d_at_mode_7_8_dist-0.2_0.1.F87
-rw-r--r-- 1 bsonghao nooijen   22384 Nov 16 19:08 /scratch/bsonghao/nh3_diabatization_2d_at_mode_7_8_dist-0.2_0.1.F88
-rw-r--r-- 1 bsonghao nooijen     240 Nov 16 19:08 /scratch/bsonghao/nh3_diabatization_2d_at_mode_7_8_dist-0.2_0.1.F89
-rw-r--r-- 1 bsonghao nooijen       0 Nov 16 19:08 /scratch/bsonghao/nh3_diabatization_2d_at_mode_7_8_dist-0.2_0.1.F90
-rw-r--r-- 1 bsonghao nooijen   13760 Nov 16 19:08 /scratch/bsonghao/nh3_diabatization_2d_at_mode_7_8_dist-0.2_0.1.F91
-rw-r--r-- 1 bsonghao nooijen   22776 Nov 16 19:08 /scratch/bsonghao/nh3_diabatization_2d_at_mode_7_8_dist-0.2_0.1.F92
-rw-r--r-- 1 bsonghao nooijen   23168 Nov 16 19:08 /scratch/bsonghao/nh3_diabatization_2d_at_mode_7_8_dist-0.2_0.1.F93
-rw-r--r-- 1 bsonghao nooijen   22776 Nov 16 19:08 /scratch/bsonghao/nh3_diabatization_2d_at_mode_7_8_dist-0.2_0.1.F94
-rw-r--r-- 1 bsonghao nooijen   13760 Nov 16 19:08 /scratch/bsonghao/nh3_diabatization_2d_at_mode_7_8_dist-0.2_0.1.F95
-rw-r--r-- 1 bsonghao nooijen   29440 Nov 16 19:08 /scratch/bsonghao/nh3_diabatization_2d_at_mode_7_8_dist-0.2_0.1.F96
-rw-r--r-- 1 bsonghao nooijen    1184 Nov 16 19:08 /scratch/bsonghao/nh3_diabatization_2d_at_mode_7_8_dist-0.2_0.1.F97
-rw-r--r-- 1 bsonghao nooijen    9808 Nov 16 19:08 /scratch/bsonghao/nh3_diabatization_2d_at_mode_7_8_dist-0.2_0.1.F98
-rw-r--r-- 1 bsonghao nooijen   30264 Nov 16 19:08 /scratch/bsonghao/nh3_diabatization_2d_at_mode_7_8_dist-0.2_0.1.F99
ls: No match.
ls: No match.
ls: No match.
Wed 16 Nov 2022 07:08:53 PM EST
0.295u 0.047s 0:15.32 2.1%	0+0k 48+224io 0pf+0w
