----- GAMESS execution script 'rungms' -----
This job is running on host io002
under operating system Linux at Wed 16 Nov 2022 06:16:35 PM EST
Available scratch disk space (Kbyte units) at beginning of the job is
Filesystem       1K-blocks       Used   Available Use% Mounted on
/dev/sdc1      15378471580 3278917120 11318349060  23% /scratch
GAMESS temporary binary files will be written to /scratch/bsonghao
GAMESS supplementary output files will be written to /home/bsonghao/.gamess_ascii_files/267638
Copying input file nh3_diabatization_2d_at_mode_7_8_dist-0.8_-0.8.inp to your run's scratch directory...
cp nh3_diabatization_2d_at_mode_7_8_dist-0.8_-0.8.inp /scratch/bsonghao/nh3_diabatization_2d_at_mode_7_8_dist-0.8_-0.8.F05
unset echo
/home/bjb2chen/gamess/ddikick.x /home/bjb2chen/gamess/gamess.00.x nh3_diabatization_2d_at_mode_7_8_dist-0.8_-0.8 -ddi 1 1 io002 -scr /scratch/bsonghao

 Distributed Data Interface kickoff program.
 Initiating 1 compute processes on 1 nodes to run the following command:
 /home/bjb2chen/gamess/gamess.00.x nh3_diabatization_2d_at_mode_7_8_dist-0.8_-0.8 

          ******************************************************
          *         GAMESS VERSION = 02 AUG 2018 (R2)         *
          *             FROM IOWA STATE UNIVERSITY             *
          * M.W.SCHMIDT, K.K.BALDRIDGE, J.A.BOATZ, S.T.ELBERT, *
          *   M.S.GORDON, J.H.JENSEN, S.KOSEKI, N.MATSUNAGA,   *
          *          K.A.NGUYEN, S.J.SU, T.L.WINDUS,           *
          *       TOGETHER WITH M.DUPUIS, J.A.MONTGOMERY       *
          *         J.COMPUT.CHEM.  14, 1347-1363(1993)        *
          **************** 64 BIT LINUX VERSION ****************

  SINCE 1993, STUDENTS AND POSTDOCS WORKING AT IOWA STATE UNIVERSITY
  AND ALSO IN THEIR VARIOUS JOBS AFTER LEAVING ISU HAVE MADE IMPORTANT
  CONTRIBUTIONS TO THE CODE:
     IVANA ADAMOVIC, CHRISTINE AIKENS, YURI ALEXEEV, POOJA ARORA,
     ANDREY ASADCHEV, ROB BELL, PRADIPTA BANDYOPADHYAY, JONATHAN BENTZ,
     BRETT BODE, KURT BRORSEN, CALEB CARLIN, GALINA CHABAN, WEI CHEN,
     CHEOL HO CHOI, PAUL DAY, ALBERT DEFUSCO, NUWAN DESILVA, TIM DUDLEY,
     DMITRI FEDOROV, ALEX FINDLATER, GRAHAM FLETCHER, MARK FREITAG,
     KURT GLAESEMANN, ANASTASIA GUININA,
     DAN KEMP, GRANT MERRILL, NORIYUKI MINEZAWA, JONATHAN MULLIN,
     TAKESHI NAGATA, SEAN NEDD, HEATHER NETZLOFF, BOSILJKA NJEGIC, RYAN OLSON,
     MIKE PAK, BUU PHAM,
     SPENCER PRUITT, LUKE ROSKOP, JIM SHOEMAKER, LYUDMILA SLIPCHENKO,
     TONY SMITH, SAROM SOK LEANG, JIE SONG, TETSUYA TAKETSUGU, SIMON WEBB,
     PENG XU, SOOHAENG YOO, FEDERICO ZAHARIEV

  ADDITIONAL CODE HAS BEEN PROVIDED BY COLLABORATORS IN OTHER GROUPS:
     IOWA STATE UNIVERSITY:
          JOE IVANIC, AARON WEST, LAIMUTIS BYTAUTAS, KLAUS RUEDENBERG
     UNIVERSITY OF TOKYO: KIMIHIKO HIRAO, TAKAHITO NAKAJIMA,
          TAKAO TSUNEDA, MUNEAKI KAMIYA, SUSUMU YANAGISAWA,
          KIYOSHI YAGI, MAHITO CHIBA, SEIKEN TOKURA, NAOAKI KAWAKAMI
     UNIVERSITY OF AARHUS: FRANK JENSEN
     UNIVERSITY OF IOWA: VISVALDAS KAIRYS, HUI LI
     NATIONAL INST. OF STANDARDS AND TECHNOLOGY: WALT STEVENS, DAVID GARMER
     UNIVERSITY OF PISA: BENEDETTA MENNUCCI, JACOPO TOMASI
     UNIVERSITY OF MEMPHIS: HENRY KURTZ, PRAKASHAN KORAMBATH
     UNIVERSITY OF ALBERTA: TOBY ZENG, MARIUSZ KLOBUKOWSKI
     UNIVERSITY OF NEW ENGLAND: MARK SPACKMAN
     MIE UNIVERSITY: HIROAKI UMEDA
     NAT. INST. OF ADVANCED INDUSTRIAL SCIENCE AND TECHNOLOGY: KAZUO KITAURA
     MICHIGAN STATE UNIVERSITY:
          KAROL KOWALSKI, MARTA WLOCH, JEFFREY GOUR, JESSE LUTZ,
          WEI LI, JUN SHEN, J. EMILIANO DEUSTUA, PIOTR PIECUCH
     UNIVERSITY OF MINNESOTA:
          YINAN SHU
     UNIVERSITY OF SILESIA: MONIKA MUSIAL, STANISLAW KUCHARSKI
     FACULTES UNIVERSITAIRES NOTRE-DAME DE LA PAIX:
          OLIVIER QUINET, BENOIT CHAMPAGNE
     UNIVERSITY OF CALIFORNIA - SANTA BARBARA: BERNARD KIRTMAN
     INSTITUTE FOR MOLECULAR SCIENCE:
          KAZUYA ISHIMURA, MICHIO KATOUDA, AND SHIGERU NAGASE
     UNIVERSITY OF NOTRE DAME: ANNA POMOGAEVA, DAN CHIPMAN
     KYUSHU UNIVERSITY:
          HARUYUKI NAKANO,
          FENG LONG GU, JACEK KORCHOWIEC, MARCIN MAKOWSKI, AND YURIKO AOKI,
          HIROTOSHI MORI AND EISAKU MIYOSHI
     PENNSYLVANIA STATE UNIVERSITY:
          TZVETELIN IORDANOV, CHET SWALINA, JONATHAN SKONE,
          SHARON HAMMES-SCHIFFER
     WASEDA UNIVERSITY:
          MASATO KOBAYASHI, TOMOKO AKAMA, TSUGUKI TOUMA,
          TAKESHI YOSHIKAWA, YASUHIRO IKABATA, JUNJI SEINO,
          YUYA NAKAJIMA, HIROMI NAKAI
     NANJING UNIVERSITY: SHUHUA LI
     UNIVERSITY OF NEBRASKA:
          PEIFENG SU, DEJUN SI, NANDUN THELLAMUREGE, YALI WANG, HUI LI
     UNIVERSITY OF ZURICH: ROBERTO PEVERATI, KIM BALDRIDGE
     N. COPERNICUS UNIVERSITY AND JACKSON STATE UNIVERSITY:
          MARIA BARYSZ
     UNIVERSITY OF COPENHAGEN: Jimmy Kromann, CASPER STEINMANN
     TOKYO INSTITUTE OF TECHNOLOGY: HIROYA NAKATA
     NAGOYA UNIVERSITY: YOSHIO NISHIMOTO, STEPHAN IRLE
     MOSCOW STATE UNIVERSITY: VLADIMIR MIRONOV

 EXECUTION OF GAMESS BEGUN Wed Nov 16 18:16:36 2022

            ECHO OF THE FIRST FEW INPUT CARDS -
 INPUT CARD> $system kdiag=3 mwords=100 memddi=1000 parall=.t. $end                         
 INPUT CARD> $contrl runtyp=energy ispher=1 $end                                            
 INPUT CARD> $contrl icut=9 itol=20 inttyp=rysquad qmttol=1.0d-05 nosym=1 $end              
 INPUT CARD> $scf    npunch=2 conv=1.0d-06 dirscf=.t.      $end                             
 INPUT CARD> $contrl scftyp=mcscf  mult=2 maxit=200 icharg=1 mplevl=2 $end                  
 INPUT CARD> $guess  guess=moread norb=29 purify=.t. $end                                   
 INPUT CARD> $basis  gbasis=ccd $end                                                        
 INPUT CARD> $mcscf  cistep=gmcci fullnr=.t. finci=mos                                      
 INPUT CARD>         acurcy=1.d-6 maxit=100 $end                                            
 INPUT CARD> $trans  dirtrf=.t. $end                                                        
 INPUT CARD> $mrmp   mrpt=gmcpt rdvecs=.f. $end                                             
 INPUT CARD> $gmcpt  nmofzc=0 nmodoc=1 nmoact=7 nelact=7 stsym(1)=A                         
 INPUT CARD>         reftyp=ormas nspace=1 mstart(1)=2 mine(1)=7 maxe(1)=7                  
 INPUT CARD>         kstate(1)=1,1,1                                                        
 INPUT CARD>         wstate(1)=1,1,1                                                        
 INPUT CARD>         iwgt=0 thrwgt=-1.0 krot=.f. kszdoe=.f. knospn=.f.                      
 INPUT CARD>         thrde=-1.0 edshft=0.02 $end                                            
 INPUT CARD> $data                                                                          
 INPUT CARD> NH3+ 3 states calculation at NH3 structure.                                    
 INPUT CARD> c1                                                                             
 INPUT CARD>N 7.0 0.049831344 0.04983122400000001 -0.1693802522                             
 INPUT CARD>H 1.0 -1.178334146 0.4459606238 0.1791618201                                    
 INPUT CARD>H 1.0 -0.5669315939999999 -0.5545763918000001 0.5449336361000001                
 INPUT CARD>H 1.0 1.052845876 -0.583805968 0.045278612100000004                             
 INPUT CARD>$end                                                                            
 INPUT CARD>--- OPTIMIZED RHF      MO-S --- GENERATED AT Mon Nov 14 16:47:08 2022           
 INPUT CARD>E=      -56.3825050291, E(NUC)=   11.8429239490                                 
 INPUT CARD> $VEC                                                                           
 INPUT CARD> 1  1-1.00134066E+00-2.25158504E-03 3.44925845E-03 0.00000000E+00 0.00000000E+00
 INPUT CARD> 1  2-2.13170927E-03 0.00000000E+00 0.00000000E+00 6.57129898E-04-6.87950443E-05
 INPUT CARD> 1  3-6.87950443E-05 1.37590089E-04 0.00000000E+00 0.00000000E+00 0.00000000E+00
 INPUT CARD> 1  4 3.25502815E-04-4.84772356E-04 3.62525460E-04-6.27912517E-04-3.45956485E-04
 INPUT CARD> 1  5 3.25502815E-04-4.84772356E-04 3.62525460E-04 6.27912517E-04-3.45956485E-04
 INPUT CARD> 1  6 3.25502815E-04-4.84772356E-04-7.25050921E-04 0.00000000E+00-3.45956485E-04
 INPUT CARD> 2  1 1.31286642E-02-4.05911371E-01-2.82090992E-01 0.00000000E+00 0.00000000E+00
 INPUT CARD> 2  2-7.71489043E-02 0.00000000E+00 0.00000000E+00 9.73717494E-03 6.62450916E-04
 INPUT CARD> 2  3 6.62450916E-04-1.32490183E-03 0.00000000E+00 0.00000000E+00 0.00000000E+00
 INPUT CARD> 2  4-1.96090317E-01-1.96656153E-02-1.74855877E-02 3.02859263E-02 8.68214399E-03
 INPUT CARD> 2  5-1.96090317E-01-1.96656153E-02-1.74855877E-02-3.02859263E-02 8.68214399E-03
 INPUT CARD> 2  6-1.96090317E-01-1.96656153E-02 3.49711754E-02 0.00000000E+00 8.68214399E-03
 INPUT CARD> 3  1 0.00000000E+00 0.00000000E+00 0.00000000E+00 4.48608762E-01 0.00000000E+00
 INPUT CARD> 3  2 0.00000000E+00 2.18692520E-01 0.00000000E+00 0.00000000E+00 1.30198027E-02
 INPUT CARD> 3  3-1.30198027E-02 0.00000000E+00 0.00000000E+00 2.71832968E-02 0.00000000E+00
 INPUT CARD> 3  4-1.85332726E-01-7.03958951E-02 8.47929477E-03 1.95242443E-02 8.32835058E-03
 INPUT CARD> 3  5-1.85332726E-01-7.03958951E-02 8.47929477E-03-1.95242443E-02 8.32835058E-03
 INPUT CARD> 3  6 3.70665453E-01 1.40791790E-01-2.53376884E-02 0.00000000E+00-1.66567012E-02
 INPUT CARD> 4  1 0.00000000E+00 0.00000000E+00 0.00000000E+00 0.00000000E+00 4.48608762E-01
 INPUT CARD> 4  2 0.00000000E+00 0.00000000E+00 2.18692520E-01 0.00000000E+00 0.00000000E+00
 INPUT CARD> 4  3 0.00000000E+00 0.00000000E+00-1.50339731E-02 0.00000000E+00 2.71832968E-02
 INPUT CARD> 4  4 3.21005698E-01 1.21929267E-01 1.95242443E-02-1.40653607E-02-1.44251263E-02
  100000000 WORDS OF MEMORY AVAILABLE

     BASIS OPTIONS
     -------------
     GBASIS=CCD          IGAUSS=       0      POLAR=NONE    
     NDFUNC=       0     NFFUNC=       0     DIFFSP=       F
     NPFUNC=       0      DIFFS=       F     BASNAM=        


     RUN TITLE
     ---------
  NH3+ 3 states calculation at NH3 structure.                                    

 THE POINT GROUP OF THE MOLECULE IS C1      
 THE ORDER OF THE PRINCIPAL AXIS IS     0

 ATOM      ATOMIC                      COORDINATES (BOHR)
           CHARGE         X                   Y                   Z
 N           7.0     0.0941675858        0.0941673590       -0.3200822644
 H           1.0    -2.2267286579        0.8427433803        0.3385667475
 H           1.0    -1.0713453664       -1.0479974198        1.0297752537
 H           1.0     1.9895902129       -1.1032333095        0.0855641700

          INTERNUCLEAR DISTANCES (ANGS.)
          ------------------------------

                1 N          2 H          3 H          4 H     

   1 N       0.0000000    1.3367088 *  1.1206915 *  1.2056586 *
   2 H       1.3367088 *  0.0000000    1.2282819 *  2.4609974 *
   3 H       1.1206915 *  1.2282819 *  0.0000000    1.6953432 *
   4 H       1.2056586 *  2.4609974 *  1.6953432 *  0.0000000  

  * ... LESS THAN  3.000


     ATOMIC BASIS SET
     ----------------
 THE CONTRACTED PRIMITIVE FUNCTIONS HAVE BEEN UNNORMALIZED
 THE CONTRACTED BASIS FUNCTIONS ARE NOW NORMALIZED TO UNITY

  SHELL TYPE  PRIMITIVE        EXPONENT          CONTRACTION COEFFICIENT(S)

 N         

      1   S       1          9046.0000000    0.000699617413
      1   S       2          1357.0000000    0.005386054630
      1   S       3           309.3000000    0.027391021189
      1   S       4            87.7300000    0.103150591982
      1   S       5            28.5600000    0.278570663317
      1   S       6            10.2100000    0.448294849454
      1   S       7             3.8380000    0.278085928395
      1   S       8             0.7466000    0.015431561233

      2   S       9          9046.0000000   -0.000304990096
      2   S      10          1357.0000000   -0.002408026379
      2   S      11           309.3000000   -0.011944448725
      2   S      12            87.7300000   -0.048925992909
      2   S      13            28.5600000   -0.134472724725
      2   S      14            10.2100000   -0.315112577700
      2   S      15             3.8380000   -0.242857832550
      2   S      16             0.7466000    1.094382206854

      3   S      17             0.2248000    1.000000000000

      4   P      18            13.5500000    0.058905676772
      4   P      19             2.9170000    0.320461106714
      4   P      20             0.7973000    0.753042061792

      5   P      21             0.2185000    1.000000000000

      6   D      22             0.8170000    1.000000000000

 H         

      7   S      23            13.0100000    0.033498726390
      7   S      24             1.9620000    0.234800801174
      7   S      25             0.4446000    0.813682957883

      8   S      26             0.1220000    1.000000000000

      9   P      27             0.7270000    1.000000000000

 H         

     10   S      28            13.0100000    0.033498726390
     10   S      29             1.9620000    0.234800801174
     10   S      30             0.4446000    0.813682957883

     11   S      31             0.1220000    1.000000000000

     12   P      32             0.7270000    1.000000000000

 H         

     13   S      33            13.0100000    0.033498726390
     13   S      34             1.9620000    0.234800801174
     13   S      35             0.4446000    0.813682957883

     14   S      36             0.1220000    1.000000000000

     15   P      37             0.7270000    1.000000000000

 TOTAL NUMBER OF BASIS SET SHELLS             =   15
 NUMBER OF CARTESIAN GAUSSIAN BASIS FUNCTIONS =   30
 NOTE: THIS RUN WILL RESTRICT THE MO VARIATION SPACE TO SPHERICAL HARMONICS.
 THE NUMBER OF ORBITALS KEPT IN THE VARIATIONAL SPACE WILL BE PRINTED LATER.
 NUMBER OF ELECTRONS                          =    9
 CHARGE OF MOLECULE                           =    1
 SPIN MULTIPLICITY                            =    2
 NUMBER OF OCCUPIED ORBITALS (ALPHA)          =    5
 NUMBER OF OCCUPIED ORBITALS (BETA )          =    4
 TOTAL NUMBER OF ATOMS                        =    4
 THE NUCLEAR REPULSION ENERGY IS       10.1068500259

     $CONTRL OPTIONS
     ---------------
 SCFTYP=MCSCF        RUNTYP=ENERGY       EXETYP=RUN     
 MPLEVL=       2     CITYP =NONE         CCTYP =NONE         VBTYP =NONE    
 DFTTYP=NONE         TDDFT =NONE    
 MULT  =       2     ICHARG=       1     NZVAR =       0     COORD =UNIQUE  
 PP    =NONE         RELWFN=NONE         LOCAL =NONE         NUMGRD=       F
 ISPHER=       1     NOSYM =       1     MAXIT =     200     UNITS =ANGS    
 PLTORB=       F     MOLPLT=       F     AIMPAC=       F     FRIEND=        
 NPRINT=       7     IREST =       0     GEOM  =INPUT   
 NORMF =       0     NORMP =       0     ITOL  =      20     ICUT  =       9
 INTTYP=RYSQUAD      GRDTYP=BEST         QMTTOL= 1.0E-05

     $SYSTEM OPTIONS
     ---------------
  REPLICATED MEMORY=   100000000 WORDS (ON EVERY NODE).
 DISTRIBUTED MEMDDI=        1000 MILLION WORDS IN AGGREGATE,
 MEMDDI DISTRIBUTED OVER   1 PROCESSORS IS  1000000000 WORDS/PROCESSOR.
 TOTAL MEMORY REQUESTED ON EACH PROCESSOR=  1100000000 WORDS.
 TIMLIM=      525600.00 MINUTES, OR     365.0 DAYS.
 PARALL= T  BALTYP=  DLB     KDIAG=    3  COREFL= F
 MXSEQ2=     300 MXSEQ3=     150  mem10=         0

          ----------------
          PROPERTIES INPUT
          ----------------

     MOMENTS            FIELD           POTENTIAL          DENSITY
 IEMOM =       1   IEFLD =       0   IEPOT =       0   IEDEN =       0
 WHERE =COMASS     WHERE =NUCLEI     WHERE =NUCLEI     WHERE =NUCLEI  
 OUTPUT=BOTH       OUTPUT=BOTH       OUTPUT=BOTH       OUTPUT=BOTH    
 IEMINT=       0   IEFINT=       0                     IEDINT=       0
                                                       MORB  =       0

     -------------------------------
     INTEGRAL TRANSFORMATION OPTIONS
     -------------------------------
     NWORD  =            0
     CUTOFF = 1.0E-09     MPTRAN =       0
     DIRTRF =       T     AOINTS =DUP     

          ----------------------
          MCSCF INPUT PARAMETERS
          ----------------------
 CONVERGER SELECTION: FOCAS = F  SOSCF = F  FULLNR = T  QUD = F  JACOBI = F
 SECULAR EQUATION METHOD CISTEP = GMCCI   
 --- GENERAL INPUT OPTIONS:
 MAXIT =     100  MICIT =       1  ACURCY= 1.000E-06
 DAMP  =   0.000  CANONC=       T  ENGTOL= 1.000E-10
 EKT   =       F  NPUNCH=       2  NWORD =         0
 REGENERATE CI AFTER CONVERGENCE = NONE    
 DIABATIZATION AFTER CONVERGENCE =        F
 --- INPUT FOR FULLNR CONVERGER:
 METHOD=DM2       FORS  =       F  DROPC =       T
 LINSER=       F  FCORE =       F  NORB  =      30

          ----------------------
          INTEGRAL INPUT OPTIONS
          ----------------------
 NOPK  =       1 NORDER=       0 SCHWRZ=       T

 ------------------------------------------
 MULTIREFERENCE PERTURBATION THEORY CONTROL
 ------------------------------------------
 MRPT=GMCPT    READ CONVERGED MCSCF VECTORS= F


     ------------------------------------------
     THE POINT GROUP IS C1 , NAXIS= 1, ORDER= 1
     ------------------------------------------

 -- VARIATIONAL SPACE WILL BE RESTRICTED TO PURE SPHERICAL HARMONICS ONLY --
 AFTER EXCLUDING CONTAMINANT COMBINATIONS FROM THE CARTESIAN GAUSSIAN BASIS
 SET, THE NUMBER OF SPHERICAL HARMONICS KEPT IN THE VARIATION SPACE IS   29

     DIMENSIONS OF THE SYMMETRY SUBSPACES ARE
 A   =   29

 ..... DONE SETTING UP THE RUN .....
 CPU     0: STEP CPU TIME=     0.04 TOTAL CPU TIME=          0.0 (      0.0 MIN)
 TOTAL WALL CLOCK TIME=          0.3 SECONDS, CPU UTILIZATION IS    12.12%

          ********************
          1 ELECTRON INTEGRALS
          ********************
 TIME TO DO   DIPOLE INTEGRALS=      0.01
 ...... END OF ONE-ELECTRON INTEGRALS ......
 CPU     0: STEP CPU TIME=     0.01 TOTAL CPU TIME=          0.0 (      0.0 MIN)
 TOTAL WALL CLOCK TIME=          0.3 SECONDS, CPU UTILIZATION IS    15.15%

          -------------
          GUESS OPTIONS
          -------------
          GUESS =MOREAD            NORB  =      29          NORDER=       0
          MIX   =       F          PRTMO =       F          PUNMO =       F
          TOLZ  = 1.0E-08          TOLE  = 1.0E-05
          SYMDEN=       F          PURIFY=       T

 INITIAL GUESS ORBITALS GENERATED BY MOREAD   ROUTINE.

 STATISTICS FOR GENERATION OF SYMMETRY ORBITAL -Q- MATRIX
 NUMBER OF CARTESIAN ATOMIC ORBITALS=         30
 NUMBER OF SPHERICAL CONTAMINANTS DROPPED=     1
 NUMBER OF LINEARLY DEPENDENT MOS DROPPED=     0
 TOTAL NUMBER OF MOS IN VARIATION SPACE=      29
 ORBITAL PURIFICATION WILL OCCUR

 SYMMETRIES FOR INITIAL GUESS ORBITALS FOLLOW.   BOTH SET(S).
     5 ORBITALS ARE OCCUPIED (    1 CORE ORBITALS).
     1=A        2=A        3=A        4=A        5=A        6=A        7=A   
     8=A        9=A       10=A       11=A       12=A       13=A       14=A   
    15=A       16=A       17=A       18=A       19=A       20=A       21=A   
    22=A       23=A       24=A       25=A       26=A       27=A       28=A   
    29=A   
 ...... END OF INITIAL ORBITAL SELECTION ......
 CPU     0: STEP CPU TIME=     0.01 TOTAL CPU TIME=          0.1 (      0.0 MIN)
 TOTAL WALL CLOCK TIME=          0.4 SECONDS, CPU UTILIZATION IS    16.22%

                    ----------------------
                    AO INTEGRAL TECHNOLOGY
                    ----------------------
     S,P,L SHELL ROTATED AXIS INTEGRALS, REPROGRAMMED BY
        KAZUYA ISHIMURA (IMS) AND JOSE SIERRA (SYNSTAR).
     S,P,D,L SHELL ROTATED AXIS INTEGRALS PROGRAMMED BY
        KAZUYA ISHIMURA (INSTITUTE FOR MOLECULAR SCIENCE).
     S,P,D,F,G SHELL TO TOTAL QUARTET ANGULAR MOMENTUM SUM 5,
        ERIC PROGRAM BY GRAHAM FLETCHER (ELORET AND NASA ADVANCED
        SUPERCOMPUTING DIVISION, AMES RESEARCH CENTER).
     S,P,D,F,G,L SHELL GENERAL RYS QUADRATURE PROGRAMMED BY
        MICHEL DUPUIS (PACIFIC NORTHWEST NATIONAL LABORATORY).

          --------------------
          2 ELECTRON INTEGRALS
          --------------------

 DIRECT SCF METHOD SKIPS INTEGRAL STORAGE ON DISK.
 DIRECT TRANSFORMATION SKIPS AO INTEGRAL STORAGE ON DISK.
  ...... END OF TWO-ELECTRON INTEGRALS .....
 STEP CPU TIME =     0.02 TOTAL CPU TIME =          0.1 (      0.0 MIN)
 TOTAL WALL CLOCK TIME=          0.4 SECONDS, CPU UTILIZATION IS    18.18%
 DDI: Creating Array [0] - 900 x 36 = 32400 words.
 DDI: Creating Array [1] - 21 x 288 = 6048 words.
 DDI: Creating Array [2] - 36 x 36 = 1296 words.
 DDI: Creating Array [3] - 465 x 36 = 16740 words.

          -----------------
          MCSCF CALCULATION
          -----------------

 ----- NUCLEAR ENERGY ----- =        10.1068500259

     -------------------------------------------------
     GMC-PT/GMC-QDPT or general MCSCF input parameters
     -------------------------------------------------
 # of frozen core orbs. =         0 ->         0
 # of doubly occ. orbs. =         1
 # of active      orbs. =         7
 # of virtual     orbs. =        21
 # of active electrons  =         7
 # of states in CI      =         3
 Highest state in CI    =         3
 kstate =  1 1 1
 avecoe =  0.333 0.333 0.333
 State symmetry           = A           
 Assigned symmetry number = 1

 <<<Act. MO sym.: 1111111

 <<<Division of 1-ext.:  0
 <<<Division of 2-ext.:  0

 *** Reference space

 Reference type: ORMAS (= Occupation restricted multiple active space)
 # of orbitals          =  7
 # of minimum electrons =  7
 # of maximum electrons =  7
 State symmetry    =    1 (input)
 2*Sz              =    1 (input)
 Spin multiplicity =    2 (input)
 Dimension of reference space =      1225  (from      3432 walks)

 Dimension of reference space =      1225  (from      1225 walks)

 <<<Ionized spaces for Ref-CI:
      0:         1225 /   -1-0:         1960 /  0-1-0:         2891

 EVALUATING EXCHANGE INTEGRALS FOR DIRECT INTEGRAL TRANSFORMATION
 SCHWARZ INEQUALITY OVERHEAD:       465 INTEGRALS, T=        0.00

     --------------------------------------------
     PARTIAL TWO ELECTRON INTEGRAL TRANSFORMATION
     --------------------------------------------

 NUMBER OF CORE MOLECULAR ORBITALS     =    1
 NUMBER OF OCCUPIED MOLECULAR ORBITALS =    8
 TOTAL NUMBER OF MOLECULAR ORBITALS    =   29
 TOTAL NUMBER OF ATOMIC ORBITALS       =   30
 THRESHOLD FOR KEEPING TRANSFORMED 2E- INTEGRALS = 1.000E-09

 -------------------------------     ------------------------------
 DISTRIBUTED DATA TRANSFORMATION     PROGRAM WRITTEN BY G. FLETCHER
 -------------------------------     ------------------------------

 THE DISTRIBUTED MEMORY REQUIRED FOR THIS STEP IS MEMDDI=         1 MWORDS
 CREATING DISTRIBUTED STORAGE FOR [VIR OCC|VIR OCC] INTEGRALS
 CREATING DISTRIBUTED STORAGE FOR [VIR OCC|OCC OCC] INTEGRALS
 CREATING DISTRIBUTED STORAGE FOR [OCC OCC|OCC OCC] INTEGRALS
 CREATING DISTRIBUTED STORAGE FOR [VIR VIR|OCC OCC] INTEGRALS
 FOR    1 PROCESSORS, THE REPLICATED MEMORY NEEDED IS       73700 WORDS.
 SCHWARZ INEQUALITY OVERHEAD:       465 INTEGRALS, T=        0.01

      DIRECT 4-INDEX TRANSFORMATION 
      SCHWARZ INEQUALITY TEST SKIPPED          0 INTEGRAL BLOCKS
 ----- FROZEN CORE ENERGY =       -47.3457424906
 ... END OF INTEGRAL TRANSFORMATION ...
 CPU     0: STEP CPU TIME=     0.22 TOTAL CPU TIME=          0.3 (      0.0 MIN)
 TOTAL WALL CLOCK TIME=          0.7 SECONDS, CPU UTILIZATION IS    42.25%

     --------------------------------     -----------------------------
     MCHF NEWTON-RAPHSON OPTIMIZATION     CODE WRITTEN BY MICHEL DUPUIS
     --------------------------------     -----------------------------
     PARALLEL VERSION WRITTEN BY G. FLETCHER (ELORET)
     NASA ADVANCED SUPERCOMPUTING DIVISION, AMES RESEARCH CENTER

 NUMBER OF INDEPENDENT ORBITAL ROTATION PARAMETERS =   175
 ..... DONE SOLVING NEWTON-RAPHSON EQUATIONS .....
 CPU     0: STEP CPU TIME=     0.89 TOTAL CPU TIME=          1.2 (      0.0 MIN)
 TOTAL WALL CLOCK TIME=          1.6 SECONDS, CPU UTILIZATION IS    73.91%
 ..... DONE WITH NTN-RPH ORBITAL ROTATIONS ..... 
 CPU     0: STEP CPU TIME=     0.00 TOTAL CPU TIME=          1.2 (      0.0 MIN)
 TOTAL WALL CLOCK TIME=          1.6 SECONDS, CPU UTILIZATION IS    73.91%
 MAXIMUM MEMORY USED BY NTN-RPH CODE WAS     57645 WORDS.

 ITER     TOTAL ENERGY      DEL(E)  LAGRANGIAN ASYMMETRY   SQCDF  MICIT   DAMP
   1      -55.480204144 -0.480204144  0.175075   10    4 9.056E-02  1   0.0000
   2      -55.591952111 -0.111747968  0.033321   14    4 3.411E-01  1   0.0000
   3      -55.646658926 -0.054706815  0.028503   14    4 2.012E-01  1   0.0206
   4      -55.667148916 -0.020489989  0.009214   14    4 3.527E-02  1   0.0059
   5      -55.669769268 -0.002620352  0.002000   14    4 1.421E-03  1   0.0000
   6      -55.669914907 -0.000145639  0.000671   27    6 1.829E-04  1   0.0000
   7      -55.669936995 -0.000022087  0.000287   27    6 3.261E-05  1   0.0000
   8      -55.669941020 -0.000004025  0.000123   27    6 5.977E-06  1   0.0000
   9      -55.669941763 -0.000000743  0.000053   27    6 1.100E-06  1   0.0000
  10      -55.669941900 -0.000000137  0.000023   27    6 2.025E-07  1   0.0000
  11      -55.669941925 -0.000000025  0.000010   27    6 3.733E-08  1   0.0000
  12      -55.669941930 -0.000000005  0.000004   27    6 6.908E-09  1   0.0000
  13      -55.669941931 -0.000000001  0.000002   27    6 1.272E-09  1   0.0000
  14      -55.669941931 -0.000000000  0.000001   27    6 2.303E-10  1   0.0000

          --------------------
          LAGRANGIAN CONVERGED
          --------------------

 FINAL MCSCF ENERGY IS      -55.6699419311 AFTER  14 ITERATIONS

 -MCCI- BASED ON OPTIMIZED ORBITALS
 ----------------------------------

 PLEASE NOTE: IF THE ACTIVE ORBITALS ARE CANONICALIZED BELOW,
 THE FOLLOWING CI EXPANSION COEFFICIENTS AND THE DENSITY DO NOT
 CORRESPOND TO THE PRINTED ORBITALS.  THE PRINTED EXPANSIONS MATCH
 THE ORBITALS USED DURING THE LAST ITERATION.  IF YOU WISH TO SEE
 CI EXPANSIONS BASED ON THE CANONICAL (OR NATURAL) ORBITALS, YOU
 MUST RUN A CI CALCULATION WITH THAT ORBITAL CHOICE READ IN $VEC.

 Averaged energy =     -55.669941931

 State #    1  Energy =     -55.784734785  S =  0.500

      Det      Coef    Occupancy (Ignoring core)
      ---      ----    --------- --------- -----
        1   -0.747655  11110001110000
        2   -0.073305  11101001110000
        3    0.107413  11011001110000
        4   -0.050717  10111001110000
        5    0.082737  01111001110000
        8    0.098749  10110101110000
       16   -0.086594  11100011110000
       17    0.192162  11010011110000
       36    0.449958  11110001101000
       37    0.054783  11101001101000
       38   -0.077114  11011001101000
       39    0.056339  10111001101000
       40   -0.052859  01111001101000
       51    0.102129  11100011101000
       52   -0.113832  11010011101000
       71   -0.187530  11110001011000
       87    0.050617  11010011011000
      141   -0.052629  11110001100100
      386   -0.060913  11110001010010
      393   -0.050167  10110101010010
      701   -0.090034  11110001100001
      717   -0.055659  11010011100001

 State #    2  Energy =     -55.652786587  S =  0.500

      Det      Coef    Occupancy (Ignoring core)
      ---      ----    --------- --------- -----
        1    0.472937  11110001110000
        8   -0.057528  10110101110000
       17   -0.082899  11010011110000
       36    0.726056  11110001101000
       37    0.079918  11101001101000
       38   -0.163117  11011001101000
       39    0.094739  10111001101000
       40   -0.069998  01111001101000
       41   -0.059434  11100101101000
       43   -0.065658  10110101101000
       51    0.110952  11100011101000
       52   -0.190249  11010011101000
       54   -0.050740  01110011101000
       71   -0.053137  11110001011000
      106    0.058757  11110000111000
      122   -0.053208  11010010111000
      141    0.100617  11110001100100
      246   -0.062042  11110001001100
      351   -0.083519  11110001100010
      463    0.050968  10110101001010
      701    0.193851  11110001100001

 State #    3  Energy =     -55.572304421  S =  0.500

      Det      Coef    Occupancy (Ignoring core)
      ---      ----    --------- --------- -----
        1   -0.113390  11110001110000
        2    0.435454  11101001110000
        3   -0.335833  11011001110000
        4    0.116739  10111001110000
        5   -0.053140  01111001110000
       11   -0.060258  10101101110000
       16    0.252605  11100011110000
       17   -0.165273  11010011110000
       18    0.061239  10110011110000
       20   -0.087315  11001011110000
       36    0.255164  11110001101000
       37   -0.427442  11101001101000
       38    0.183073  11011001101000
       39   -0.086847  10111001101000
       46    0.056383  10101101101000
       51   -0.254312  11100011101000
       52    0.070313  11010011101000
       53   -0.060358  10110011101000
       55    0.078922  11001011101000
       72    0.108261  11101001011000
       73   -0.074516  11011001011000
      107   -0.110875  11101000111000
      121   -0.075691  11100010111000
      141   -0.091609  11110001100100
      211   -0.057735  11110000110100
      212    0.055013  11101000110100
      281    0.051167  11110000101100
      282   -0.054352  11101000101100
      386   -0.051640  11110001010010
      387    0.092907  11101001010010
      388   -0.060892  11011001010010
      457   -0.090540  11101001001010
      701   -0.089039  11110001100001
      702    0.094613  11101001100001
      703   -0.059749  11011001100001

 DENSITY MATRIX OVER ACTIVE MO-S

             1           2           3           4           5

    1    1.9540799
    2   -0.0206775   1.8907756
    3   -0.0856584  -0.1250682   1.3690004
    4   -0.0523693  -0.1450647  -0.2865026   1.2498801
    5    0.1250615   0.0656841   0.0780849  -0.0213895   0.3018273
    6   -0.0076038  -0.1746912  -0.0534814  -0.0536381  -0.0007047
    7    0.0260611  -0.0101623   0.2342629   0.0351016   0.1732728

             6           7

    6    0.0622366
    7   -0.0107663   0.1722000

 FORMING THE "STANDARD FOCK OPERATOR" IN DIRECT AO INTEGRAL MODE...
 ONLY THE    1 CORE AND   21 VIRTUAL ORBITALS WILL BE CANONICALIZED

          ----------------------
          MCSCF NATURAL ORBITALS
          ----------------------

                      1          2          3          4          5
                  -16.0268     1.9747     1.9464     1.6254     1.0235
                     A          A          A          A          A   
    1  N  1  S    1.000786   0.016091   0.002430   0.010969  -0.003034
    2  N  1  S   -0.002951   0.449583   0.019754   0.205171  -0.040910
    3  N  1  S   -0.006997   0.368271   0.057133   0.289018  -0.071996
    4  N  1  X   -0.001308   0.014048   0.441430   0.011387   0.206810
    5  N  1  Y    0.000028  -0.091950  -0.100157   0.408150   0.388011
    6  N  1  Z    0.000630   0.069961  -0.079209  -0.347886   0.470338
    7  N  1  X   -0.000356   0.013141   0.206125  -0.011915   0.142525
    8  N  1  Y    0.000563  -0.030435  -0.056937   0.222021   0.266874
    9  N  1  Z   -0.000540   0.017678  -0.026535  -0.188133   0.336133
   10  N  1 XX    0.000090   0.003797  -0.003685   0.010821  -0.002758
   11  N  1 YY   -0.000049  -0.001266   0.006257  -0.004215  -0.010027
   12  N  1 ZZ   -0.000042  -0.002532  -0.002572  -0.006606   0.012784
   13  N  1 XY    0.000056  -0.003197  -0.011011  -0.009794  -0.012473
   14  N  1 XZ   -0.000188  -0.001913   0.016527   0.006553  -0.002165
   15  N  1 YZ   -0.000244  -0.003833  -0.000736   0.020022   0.006323
   16  H  2  S   -0.000130   0.086669  -0.268332   0.080314   0.117317
   17  H  2  S    0.000317   0.000229  -0.062667   0.060072   0.080465
   18  H  2  X   -0.000218   0.014011  -0.027734   0.011112   0.012006
   19  H  2  Y    0.000041  -0.005950   0.017680   0.006503   0.008365
   20  H  2  Z    0.000106  -0.002819   0.001820  -0.010837   0.014052
   21  H  3  S   -0.001256   0.198838  -0.210823  -0.310637  -0.035364
   22  H  3  S    0.000470   0.004503  -0.030035  -0.106692  -0.023298
   23  H  3  X   -0.000518   0.021180   0.008252  -0.021888   0.002663
   24  H  3  Y   -0.000507   0.019420  -0.024705  -0.009989   0.016668
   25  H  3  Z    0.000584  -0.022497   0.014959   0.013600   0.024412
   26  H  4  S   -0.001800   0.176510   0.282874  -0.083483   0.063287
   27  H  4  S    0.000309   0.014390   0.060459  -0.008890   0.034761
   28  H  4  X    0.000496  -0.027584  -0.026173   0.016796   0.002577
   29  H  4  Y   -0.000310   0.012924   0.017959   0.004800   0.013551
   30  H  4  Z    0.000117  -0.001956  -0.006172  -0.009968   0.012590

                      6          7          8
                    0.3652     0.0360     0.0289
                     A          A          A   
    1  N  1  S   -0.039420   0.062941  -0.078999
    2  N  1  S   -0.293799   0.183721  -0.300689
    3  N  1  S   -0.422779  -0.078912  -0.171261
    4  N  1  X    0.142890   0.807247   0.050689
    5  N  1  Y   -0.112444  -0.158702   0.634067
    6  N  1  Z   -0.183846  -0.136482  -0.492479
    7  N  1  X    0.080414   0.084473   0.036503
    8  N  1  Y   -0.067179  -0.032401  -0.025320
    9  N  1  Z   -0.095104  -0.023385   0.008948
   10  N  1 XX    0.036174   0.007999  -0.019559
   11  N  1 YY   -0.012973  -0.010321   0.000674
   12  N  1 ZZ   -0.023201   0.002322   0.018885
   13  N  1 XY   -0.037138   0.014832   0.025816
   14  N  1 XZ   -0.001475  -0.014954  -0.013573
   15  N  1 YZ   -0.000317   0.004892  -0.018694
   16  H  2  S    0.596102   0.227670  -0.200631
   17  H  2  S    0.505173   0.043842  -0.163991
   18  H  2  X    0.002898  -0.005053  -0.013602
   19  H  2  Y   -0.011448  -0.023903  -0.015848
   20  H  2  Z    0.005599   0.022457   0.015713
   21  H  3  S   -0.076593   0.310598   0.755245
   22  H  3  S   -0.070945   0.092606   0.231587
   23  H  3  X   -0.035961  -0.027759   0.032222
   24  H  3  Y    0.004417   0.025964   0.021034
   25  H  3  Z    0.012386  -0.008489  -0.024426
   26  H  4  S    0.346646  -0.628685   0.243039
   27  H  4  S    0.220081  -0.193406   0.030439
   28  H  4  X   -0.004953   0.038105  -0.028277
   29  H  4  Y    0.006614  -0.017904  -0.005484
   30  H  4  Z   -0.009888  -0.004953   0.017504

          ------------------------
          MCSCF OPTIMIZED ORBITALS
          ------------------------

                      1          2          3          4          5
                  -16.0268     0.0000     0.0000     0.0000     0.0000
                     A          A          A          A          A   
    1  N  1  S    1.000786   0.010668  -0.006216   0.001670  -0.012980
    2  N  1  S   -0.002951   0.418811   0.016419   0.041338  -0.194462
    3  N  1  S   -0.006997   0.331831   0.064463   0.071676  -0.268973
    4  N  1  X   -0.001308  -0.014165   0.391807   0.028014   0.038640
    5  N  1  Y    0.000028  -0.021026  -0.007199   0.461068   0.036769
    6  N  1  Z    0.000630   0.067275   0.005209   0.019272   0.607969
    7  N  1  X   -0.000356   0.007129   0.222926   0.046715   0.085965
    8  N  1  Y    0.000563   0.005573  -0.005306   0.320620   0.080213
    9  N  1  Z   -0.000540   0.024833   0.030316   0.017622   0.370817
   10  N  1 XX    0.000090   0.007470  -0.002762   0.016360  -0.005005
   11  N  1 YY   -0.000049  -0.003978   0.004491  -0.011379  -0.006281
   12  N  1 ZZ   -0.000042  -0.003492  -0.001728  -0.004981   0.011286
   13  N  1 XY    0.000056  -0.006633  -0.016570  -0.024770  -0.007541
   14  N  1 XZ   -0.000188  -0.003544   0.016964   0.004647  -0.006042
   15  N  1 YZ   -0.000244  -0.002220  -0.000247   0.021568  -0.006240
   16  H  2  S   -0.000130   0.175591  -0.226341   0.281751   0.116182
   17  H  2  S    0.000317   0.058768  -0.025835   0.221374   0.079463
   18  H  2  X   -0.000218   0.018583  -0.022859   0.019560   0.007275
   19  H  2  Y    0.000041  -0.007659   0.020039   0.009566   0.002184
   20  H  2  Z    0.000106  -0.002197   0.001991  -0.003178   0.015094
   21  H  3  S   -0.001256   0.195608  -0.227477  -0.395348   0.107947
   22  H  3  S    0.000470  -0.005256  -0.045597  -0.143760   0.024397
   23  H  3  X   -0.000518   0.016319   0.011334  -0.028877   0.010748
   24  H  3  Y   -0.000507   0.022768  -0.021763  -0.001807   0.018741
   25  H  3  Z    0.000584  -0.020177   0.018535   0.031178   0.012506
   26  H  4  S   -0.001800   0.184122   0.386617  -0.000050   0.112247
   27  H  4  S    0.000309   0.031866   0.098063   0.059075   0.052726
   28  H  4  X    0.000496  -0.024310  -0.031600   0.020978  -0.004992
   29  H  4  Y   -0.000310   0.012848   0.023268   0.010635   0.006750
   30  H  4  Z    0.000117  -0.001536  -0.003860  -0.003838   0.015284

                      6          7          8          9         10
                    0.0000     0.0000     0.0000     0.1909     0.2362
                     A          A          A          A          A   
    1  N  1  S    0.076834   0.062547  -0.044847   0.091086   0.032436
    2  N  1  S    0.450187   0.175774  -0.089481   0.162283   0.040854
    3  N  1  S    0.485170  -0.096503   0.073811  -0.937975  -0.316806
    4  N  1  X   -0.094266   0.863798   0.039606  -0.065387   0.174182
    5  N  1  Y   -0.166804  -0.148766   0.714920  -0.123781  -0.113532
    6  N  1  Z    0.435319  -0.087049  -0.277024   0.142447   0.027433
    7  N  1  X   -0.063505   0.119744   0.018966   0.144622  -0.697617
    8  N  1  Y    0.113711  -0.008976   0.092660   0.413593   0.325238
    9  N  1  Z    0.099439   0.003469   0.099076  -0.368908  -0.009691
   10  N  1 XX   -0.019521   0.010405  -0.032594  -0.050805  -0.012364
   11  N  1 YY    0.008949  -0.011672   0.003616   0.027000  -0.012994
   12  N  1 ZZ    0.010572   0.001267   0.028978   0.023805   0.025358
   13  N  1 XY    0.015579   0.009010   0.036548   0.000186   0.060422
   14  N  1 XZ    0.008464  -0.013220  -0.011385   0.064778  -0.054608
   15  N  1 YZ    0.012005   0.006264  -0.011710   0.060493   0.013696
   16  H  2  S   -0.374719   0.261870  -0.404002  -0.407081   0.313328
   17  H  2  S   -0.327712   0.085276  -0.352018   0.060362  -0.701072
   18  H  2  X    0.007063  -0.005090  -0.008538   0.021373  -0.050170
   19  H  2  Y    0.018805  -0.021396  -0.006778   0.052093  -0.009345
   20  H  2  Z   -0.011763   0.023550   0.013002  -0.039656   0.040006
   21  H  3  S   -0.337549   0.252723   0.647065  -0.498674   0.196153
   22  H  3  S   -0.069151   0.072857   0.215942   1.643386  -0.553229
   23  H  3  X    0.013454  -0.029921   0.041043   0.126464  -0.022333
   24  H  3  Y   -0.012107   0.025026   0.019538   0.031200   0.004253
   25  H  3  Z    0.004600  -0.002878  -0.020599  -0.080427   0.014102
   26  H  4  S   -0.409248  -0.577061   0.012950  -0.329552  -0.628356
   27  H  4  S   -0.199053  -0.169420  -0.081798   0.342763   1.797954
   28  H  4  X    0.018488   0.036419  -0.016970  -0.069034  -0.075242
   29  H  4  Y    0.000200  -0.013982  -0.005469   0.010785   0.068118
   30  H  4  Z   -0.000409  -0.005374   0.020829   0.019655  -0.040604

                     11         12         13         14         15
                    0.2973     0.5889     0.6104     0.7615     0.8914
                     A          A          A          A          A   
    1  N  1  S   -0.008940  -0.030250  -0.008267   0.225432  -0.314278
    2  N  1  S   -0.033889  -0.180383  -0.003689   0.565270  -0.696851
    3  N  1  S   -0.094741  -0.302911   0.081016  -0.582384   1.137391
    4  N  1  X   -0.084385  -0.277207  -0.304252  -0.361009  -0.174840
    5  N  1  Y   -0.016718  -0.319227  -0.556168   0.385355   0.137503
    6  N  1  Z    0.029252   0.399558  -0.710148  -0.092613   0.084928
    7  N  1  X    0.234737   0.982691   0.405064   1.122857   0.548172
    8  N  1  Y   -0.223386   0.714660   0.580138  -0.938465  -0.469067
    9  N  1  Z    0.054081  -0.967088   0.738384   0.170732  -0.113855
   10  N  1 XX   -0.060220   0.063145  -0.007565   0.041311  -0.181235
   11  N  1 YY    0.021133  -0.039432  -0.003853  -0.062641   0.087285
   12  N  1 ZZ    0.039087  -0.023713   0.011418   0.021330   0.093950
   13  N  1 XY    0.070037  -0.000594  -0.006881   0.029244  -0.126009
   14  N  1 XZ   -0.011087  -0.043789  -0.008936  -0.078352  -0.110704
   15  N  1 YZ   -0.039440   0.001488   0.005103   0.116560   0.028690
   16  H  2  S   -0.777900   0.324463   0.031761   0.270082   0.354520
   17  H  2  S    1.917846  -0.374693  -0.121324   0.599517  -0.071841
   18  H  2  X    0.033321   0.088317   0.020980   0.119197   0.111770
   19  H  2  Y   -0.035019  -0.119210   0.052504  -0.166086   0.343428
   20  H  2  Z    0.011211   0.028626   0.086679   0.159031   0.213283
   21  H  3  S    0.558546   0.669136   0.002474  -0.232420  -0.032536
   22  H  3  S   -1.719607   0.761257   0.118879  -0.023448  -0.159128
   23  H  3  X    0.037464  -0.026467   0.016786  -0.152077   0.281078
   24  H  3  Y   -0.067811   0.163555   0.028362   0.243933   0.022649
   25  H  3  Z    0.029590  -0.113978   0.030037  -0.046374   0.275033
   26  H  4  S   -0.318834   0.140567  -0.081399  -0.601684  -0.404258
   27  H  4  S    0.553020  -0.499884  -0.095056  -0.080934  -0.383498
   28  H  4  X    0.012576   0.099022   0.027258   0.175247  -0.092566
   29  H  4  Y   -0.005088   0.059946   0.004565   0.008465  -0.321854
   30  H  4  Z    0.007530  -0.091177   0.025323  -0.151044  -0.086112

                     16         17         18         19         20
                    0.9753     1.0791     1.1315     1.2389     1.3379
                     A          A          A          A          A   
    1  N  1  S   -0.367742  -0.542819  -0.165351  -0.022076   0.109536
    2  N  1  S   -0.788072  -1.165242  -0.359387  -0.057566   0.255131
    3  N  1  S    1.414498   2.032492   0.623922   0.101019  -0.305335
    4  N  1  X   -0.289042   0.194230   0.094208  -0.007451   0.056272
    5  N  1  Y    0.159204  -0.078009  -0.059295   0.048629   0.040222
    6  N  1  Z   -0.032994   0.012464  -0.039526  -0.017762   0.125129
    7  N  1  X    0.879255  -0.639632  -0.210438  -0.171978  -0.183456
    8  N  1  Y   -0.560562  -0.346336   0.074133  -0.384717  -0.032743
    9  N  1  Z    0.319984   0.359139   0.492368   0.155082  -0.356114
   10  N  1 XX    0.062335  -0.019731  -0.002897   0.151751  -0.055068
   11  N  1 YY    0.013313  -0.143519   0.256937  -0.184824   0.065366
   12  N  1 ZZ   -0.075648   0.163250  -0.254041   0.033074  -0.010298
   13  N  1 XY    0.149013   0.082145   0.042314  -0.048055   0.069316
   14  N  1 XZ    0.130587   0.067731  -0.119865  -0.000550   0.005651
   15  N  1 YZ   -0.009976   0.178151   0.203311   0.101889   0.008379
   16  H  2  S    0.414565  -0.501032  -0.248777  -0.064146   0.084100
   17  H  2  S   -0.006754  -0.087141  -0.011428   0.078027  -0.119220
   18  H  2  X   -0.230879  -0.029373   0.141960   0.235260   0.141500
   19  H  2  Y   -0.061932  -0.191654   0.112289   0.375157   0.442723
   20  H  2  Z   -0.280180   0.262547   0.056394  -0.298094   0.658269
   21  H  3  S   -0.179996  -0.580113  -0.182089  -0.015725   0.094759
   22  H  3  S   -0.224091  -0.398615  -0.129471  -0.096534   0.106496
   23  H  3  X   -0.016170  -0.312465  -0.334243   0.083341  -0.064997
   24  H  3  Y   -0.307025   0.234711  -0.325678  -0.106279  -0.185388
   25  H  3  Z   -0.257971   0.220991  -0.366984   0.289668  -0.276286
   26  H  4  S   -0.635600  -0.096773  -0.013217  -0.107374   0.187982
   27  H  4  S   -0.434983  -0.137684  -0.017127   0.030971  -0.002794
   28  H  4  X    0.124736   0.186830   0.027227   0.320945   0.225267
   29  H  4  Y    0.088263   0.117361  -0.192821   0.598322   0.283073
   30  H  4  Z    0.261743   0.076816  -0.532765  -0.306504   0.424235

                     21         22         23         24         25
                    1.4833     1.6858     1.7278     2.0102     2.0353
                     A          A          A          A          A   
    1  N  1  S   -0.024132  -0.063345   0.155964  -0.050441   0.003507
    2  N  1  S   -0.161791  -0.156778   0.403302  -0.118790   0.009594
    3  N  1  S   -0.449116   0.020102   0.071321  -0.047565   0.019658
    4  N  1  X   -0.027594   0.411051  -0.126025  -0.055668   0.001354
    5  N  1  Y    0.115664   0.003834  -0.197910   0.108037  -0.035579
    6  N  1  Z   -0.084726  -0.169213   0.211595  -0.069175  -0.011992
    7  N  1  X    0.500474   0.330318   0.699787  -0.129565   0.042733
    8  N  1  Y   -0.227420  -0.143013  -0.236528   0.151540   0.163113
    9  N  1  Z   -0.158954  -0.001133  -0.098442   0.110966   0.203995
   10  N  1 XX    0.160404   0.057936  -0.048974   0.297137  -0.340137
   11  N  1 YY   -0.037470  -0.107559  -0.048064  -0.604904  -0.472282
   12  N  1 ZZ   -0.122934   0.049623   0.097038   0.307767   0.812419
   13  N  1 XY   -0.151714   0.139627   0.004238   0.280155  -0.521689
   14  N  1 XZ   -0.075129  -0.234340  -0.005656   0.268530  -0.211436
   15  N  1 YZ   -0.082110   0.004624   0.287367  -0.193368  -0.016410
   16  H  2  S    0.000386   0.010288   0.173259  -0.173734   0.020266
   17  H  2  S    0.540755   0.100322   0.154059  -0.286481   0.041150
   18  H  2  X    0.750795   0.349656   0.133798  -0.229825  -0.013308
   19  H  2  Y   -0.061946   0.091139   0.286230   0.663157  -0.227624
   20  H  2  Z   -0.117173  -0.344288  -0.396228  -0.026133  -0.010017
   21  H  3  S    0.093865  -0.109882   0.269070   0.117750  -0.044539
   22  H  3  S   -0.172067   0.452905  -0.195360   0.244026  -0.054610
   23  H  3  X   -0.085044   0.392328  -0.665149  -0.302968  -0.106351
   24  H  3  Y    0.061676   0.349752  -0.115859   0.358030  -0.509455
   25  H  3  Z   -0.167634  -0.408214   0.353685  -0.355835  -0.461860
   26  H  4  S   -0.300517   0.009056  -0.207754   0.091532  -0.002904
   27  H  4  S    0.180049  -0.483888  -0.245386   0.088845   0.005203
   28  H  4  X   -0.538920   0.569966   0.198057  -0.402244   0.053038
   29  H  4  Y    0.128800  -0.375419  -0.461149  -0.185721   0.014868
   30  H  4  Z    0.357361   0.198741   0.429568  -0.311674  -0.073860

                     26         27         28         29
                    2.0964     2.3254     2.6068     2.9453
                     A          A          A          A   
    1  N  1  S   -0.085553  -0.076498  -0.291817   0.200810
    2  N  1  S   -0.197581  -0.117523  -0.432364   0.339663
    3  N  1  S   -0.006164   0.631860   2.198016  -0.880834
    4  N  1  X   -0.048512   0.065007  -0.143365  -0.211172
    5  N  1  Y    0.149241  -0.041878  -0.189810  -0.049004
    6  N  1  Z   -0.108023   0.018173   0.227597   0.082998
    7  N  1  X   -0.309686   0.782634  -0.716104  -0.443256
    8  N  1  Y    0.019781  -0.719511  -0.577585   0.055273
    9  N  1  Z    0.048421   0.277359   0.784260   0.040547
   10  N  1 XX   -0.452246  -0.402833   0.465140  -0.791725
   11  N  1 YY    0.443517   0.385742  -0.234139   0.188707
   12  N  1 ZZ    0.008729   0.017091  -0.231002   0.603018
   13  N  1 XY   -0.199038  -0.252314   0.089804   1.072951
   14  N  1 XZ   -0.407776   0.539694  -0.845614  -0.304224
   15  N  1 YZ    0.068328  -0.753583  -0.762550  -0.219660
   16  H  2  S   -0.278158   0.236715  -0.469766   0.382763
   17  H  2  S   -0.351899   0.243331  -0.095091   0.152702
   18  H  2  X   -0.509730   0.418535  -0.418104   0.602005
   19  H  2  Y    0.453243   0.044727   0.087419  -0.244483
   20  H  2  Z   -0.327762  -0.159323   0.169887  -0.171303
   21  H  3  S    0.098198  -0.245238  -1.267442  -0.565513
   22  H  3  S    0.284736  -0.092533  -0.562220  -0.156831
   23  H  3  X   -0.345580  -0.498215  -0.624327  -0.226583
   24  H  3  Y    0.672439   0.211317  -0.549627  -0.445255
   25  H  3  Z   -0.277650   0.014752   0.671861   0.431363
   26  H  4  S    0.148567  -0.634162  -0.354615   0.768381
   27  H  4  S    0.129333  -0.342941  -0.030538   0.310739
   28  H  4  X   -0.195082   0.634582   0.275355  -0.691896
   29  H  4  Y    0.483412  -0.143395  -0.103118   0.504502
   30  H  4  Z    0.098997  -0.186022   0.052422  -0.243608
 .....DONE WITH MCSCF ITERATIONS.....
 CPU     0: STEP CPU TIME=    10.24 TOTAL CPU TIME=         11.4 (      0.2 MIN)
 TOTAL WALL CLOCK TIME=         11.8 SECONDS, CPU UTILIZATION IS    96.54%

     ----------------------------------------------------------------
     PROPERTY VALUES FOR THE MCSCF SELF-CONSISTENT FIELD WAVEFUNCTION
     ----------------------------------------------------------------

          -----------------
          ENERGY COMPONENTS
          -----------------

         WAVEFUNCTION NORMALIZATION =       1.0000000000

                ONE ELECTRON ENERGY =     -91.8152369074
                TWO ELECTRON ENERGY =      26.0384449503
           NUCLEAR REPULSION ENERGY =      10.1068500259
                                      ------------------
                       TOTAL ENERGY =     -55.6699419311

 ELECTRON-ELECTRON POTENTIAL ENERGY =      26.0384449503
  NUCLEUS-ELECTRON POTENTIAL ENERGY =    -147.3011860073
   NUCLEUS-NUCLEUS POTENTIAL ENERGY =      10.1068500259
                                      ------------------
             TOTAL POTENTIAL ENERGY =    -111.1558910311
               TOTAL KINETIC ENERGY =      55.4859491000
                 VIRIAL RATIO (V/T) =       2.0033160257

          ---------------------------------------
          MULLIKEN AND LOWDIN POPULATION ANALYSES
          ---------------------------------------

     ATOMIC MULLIKEN POPULATION IN EACH MOLECULAR ORBITAL

                      1          2          3          4          5

                  2.000000   1.974711   1.946404   1.625351   1.023469

    1             2.000243   1.467136   1.049478   1.298671   0.970607
    2             0.000019   0.061005   0.357784   0.038104   0.032215
    3            -0.000155   0.246596   0.192511   0.263939   0.009110
    4            -0.000107   0.199974   0.346631   0.024637   0.011536

                      6          7          8

                  0.365180   0.036001   0.028884

    1             0.058347   0.018557   0.013918
    2             0.236626   0.001768   0.001013
    3            -0.002072   0.002858   0.012649
    4             0.072279   0.012818   0.001304
 WARNING! MCSCF POPULATIONS SHOWN ABOVE ARE FOR THE NATURAL ORBITALS.
 IGNORE THE ABOVE DATA FOR MCSCF FUNCTIONS WHICH ARE NOT OF -FORS- TYPE.
 THE FOLLOWING POPULATIONS ARE CORRECT FOR ANY MCSCF WAVEFUNCTION.

               ----- POPULATIONS IN EACH AO -----
                             MULLIKEN      LOWDIN
              1  N  1  S      2.00183     1.90977
              2  N  1  S      0.87192     0.63142
              3  N  1  S      0.76922     0.45586
              4  N  1  X      0.70500     0.62100
              5  N  1  Y      0.69240     0.64257
              6  N  1  Z      0.66617     0.62605
              7  N  1  X      0.37153     0.47390
              8  N  1  Y      0.39540     0.44686
              9  N  1  Z      0.38476     0.43130
             10  N  1 XX      0.00164     0.18328
             11  N  1 YY      0.00278     0.16906
             12  N  1 ZZ      0.00633     0.16527
             13  N  1 XY      0.00445     0.01305
             14  N  1 XZ      0.00352     0.00874
             15  N  1 YZ      0.00000     0.00601
             16  H  2  S      0.52260     0.42432
             17  H  2  S      0.17327     0.22976
             18  H  2  X      0.01954     0.04312
             19  H  2  Y      0.00830     0.02205
             20  H  2  Z      0.00481     0.01259
             21  H  3  S      0.61599     0.47863
             22  H  3  S      0.04913     0.16363
             23  H  3  X      0.02040     0.04184
             24  H  3  Y      0.02050     0.04106
             25  H  3  Z      0.01942     0.03684
             26  H  4  S      0.54226     0.44750
             27  H  4  S      0.08500     0.19215
             28  H  4  X      0.02549     0.04586
             29  H  4  Y      0.01126     0.02395
             30  H  4  Z      0.00507     0.01255

          ----- MULLIKEN ATOMIC OVERLAP POPULATIONS -----
          (OFF-DIAGONAL ELEMENTS NEED TO BE MULTIPLIED BY 2)

             1           2           3           4

    1    6.3148977
    2    0.0644707   0.6513835
    3    0.2554105   0.0005774   0.4818239
    4    0.2421782   0.0121020  -0.0123751   0.4271675

          TOTAL MULLIKEN AND LOWDIN ATOMIC POPULATIONS
       ATOM         MULL.POP.    CHARGE          LOW.POP.     CHARGE
    1 N             6.876957    0.123043         6.784143    0.215857
    2 H             0.728534    0.271466         0.731848    0.268152
    3 H             0.725437    0.274563         0.761996    0.238004
    4 H             0.669073    0.330927         0.722013    0.277987

          MULLIKEN SPHERICAL HARMONIC POPULATIONS
       ATOM           S       P       D      F      G      H      I    TOTAL
    1 N             3.64    3.22    0.02   0.00   0.00   0.00   0.00    6.88
    2 H             0.70    0.03    0.00   0.00   0.00   0.00   0.00    0.73
    3 H             0.67    0.06    0.00   0.00   0.00   0.00   0.00    0.73
    4 H             0.63    0.04    0.00   0.00   0.00   0.00   0.00    0.67

          ---------------------
          ELECTROSTATIC MOMENTS
          ---------------------

 POINT   1           X           Y           Z (BOHR)    CHARGE
                -0.000005   -0.000006   -0.177185        1.00 (A.U.)
         DX          DY          DZ         /D/  (DEBYE)
    -0.691793   -1.382778    1.724986    2.316512
 ...... END OF PROPERTY EVALUATION ......
 CPU     0: STEP CPU TIME=     0.00 TOTAL CPU TIME=         11.4 (      0.2 MIN)
 TOTAL WALL CLOCK TIME=         11.8 SECONDS, CPU UTILIZATION IS    96.46%

     -------------------------------------------------
     GMC-PT/GMC-QDPT or general MCSCF input parameters
     -------------------------------------------------
 # of frozen core orbs. =         0 ->         0
 # of doubly occ. orbs. =         1
 # of active      orbs. =         7
 # of virtual     orbs. =        21
 # of active electrons  =         7
 # of states in CI      =         3
 Highest state in CI    =         3
 kstate =  1 1 1
 avecoe =  0.333 0.333 0.333
 State symmetry           = A           
 Assigned symmetry number = 1

 <<<Act. MO sym.: 1111111

 <<<Division of 1-ext.:  0
 <<<Division of 2-ext.:  0

     ------------------------
     Orbital canonicalization
     ------------------------

 MOs are canonicalized for core, virtual, and invariant-active orbital spaces.
 This is a part of the GMC-QDPT calculation.
 SCHWARZ INEQUALITY OVERHEAD:       465 INTEGRALS, T=        0.00
 DIRECT TRANSFORMATION SKIPS AO INTEGRAL STORAGE ON DISK.

 Averaged energy =     -55.669941931

 State #    1  Energy =     -55.784734785  S =  0.500
 State #    2  Energy =     -55.652786587  S =  0.500
 State #    3  Energy =     -55.572304421  S =  0.500

 Orbital energies for filled orbital space
  -16.026846
 Orbital energies for active orbital space
   -1.461943  -0.988421  -0.806440  -0.556334  -0.247971
    0.175347   0.246582
 Orbital energies for external orbital space
    0.190917   0.236239   0.297299   0.588938   0.610372
    0.761487   0.891411   0.975261   1.079050   1.131488
    1.238889   1.337940   1.483266   1.685847   1.727815
    2.010233   2.035250   2.096445   2.325420   2.606827
    2.945267

 Zero values mean non-canonical orbitals.
 ... done with orbital canonicalization ...
 CPU     0: STEP CPU TIME=     0.88 TOTAL CPU TIME=         12.3 (      0.2 MIN)
 TOTAL WALL CLOCK TIME=         12.7 SECONDS, CPU UTILIZATION IS    96.70%

     --------------------------------------------
     PARTIAL TWO ELECTRON INTEGRAL TRANSFORMATION
     --------------------------------------------

 NUMBER OF CORE MOLECULAR ORBITALS     =    0
 NUMBER OF OCCUPIED MOLECULAR ORBITALS =    8
 TOTAL NUMBER OF MOLECULAR ORBITALS    =   29
 TOTAL NUMBER OF ATOMIC ORBITALS       =   30
 THRESHOLD FOR KEEPING TRANSFORMED 2E- INTEGRALS = 1.000E-09
 AO INTEGRALS WILL BE CALCULATED IN DIRECT MODE...
 DIRECT TRANSFORMATION SKIPS AO INTEGRAL STORAGE ON DISK.
 SCHWARZ INEQUALITY OVERHEAD:       465 INTEGRALS, T=        0.00

 PLAN A: REQUIREMENTS FOR FULLY IN-MEMORY TRANSFORMATION:
 # OF WORDS AVAILABLE =            100000000
 # OF WORDS NEEDED    =               221798

 PARALLEL ONLY WORKS WITH THE SEGMENTED ALGORITHM.
 ADJUSTING MEMORY TO USE SEGMENTED ALGORITHM.


 PLAN B: REQUIREMENTS FOR THE SEGMENTED TRANSFORMATION:
       MINIMUM=         124148 WORDS FOR 1 MOLECULAR ORBITAL PER PASS
       MAXIMUM=         221798 WORDS FOR ALL MOLECULAR ORBITALS IN 1 PASS
              (          13950 EXTRA WORDS INCLUDES 1 EXTRA ORBITAL/PASS)
 THIS RUN USES=         221798 WORDS,
 DISTRIBUTING   1 PASSES EACH CONTAINING     8 ORBITALS OVER   1 PROCESSORS.

 CHOOSING SEGMENTED PARTIAL TRANSFORMATION...
 DIRECT TRANSFORMATION SKIPS AO INTEGRAL STORAGE ON DISK.
 PASS #   1 TOOK        0.04 SECONDS.
 TOTAL NUMBER OF TRANSFORMED 2E- INTEGRALS KEPT =        29226
 ... END OF INTEGRAL TRANSFORMATION ...
 CPU     0: STEP CPU TIME=     0.04 TOTAL CPU TIME=         12.3 (      0.2 MIN)
 TOTAL WALL CLOCK TIME=         12.8 SECONDS, CPU UTILIZATION IS    96.64%

     --------     ------------------------------------------
     GMC-QDPT     Program written by H.Nakano (Kyushu Univ.)
     --------     ------------------------------------------

 *** Reference space

 Reference type: ORMAS (= Occupation restricted multiple active space)
 # of orbitals          =  7
 # of minimum electrons =  7
 # of maximum electrons =  7
 State symmetry    =    1 (input)
 2*Sz              =    1 (input)
 Spin multiplicity =    2 (input)
 Dimension of reference space =      1225  (from      3432 walks)

 Dimension of reference space =      1225  (from      1225 walks)

 <<<Ionized spaces for Ref-CI:
      0:         1225 /   -1-0:         1960 /  0-1-0:         2891

 ***                    ***
 *** Reference space CI ***
 ***                    ***

 Converged after   30 iterations

 Reference wavefunctions:

 State #    1  Energy =     -55.784734785  S =  0.500

      Det      Coef    Occupancy (Ignoring core)
      ---      ----    --------- --------- -----
        1    0.963231  11110001110000
       36    0.069652  11110001101000
      141   -0.068457  11110001100100
      179    0.079430  10111001010100
      211   -0.054384  11110000110100
      393    0.064112  10110101010010
      717    0.061720  11010011100001

 State #    2  Energy =     -55.652786587  S =  0.500

      Det      Coef    Occupancy (Ignoring core)
      ---      ----    --------- --------- -----
        1   -0.067582  11110001110000
        2   -0.124786  11101001110000
       36    0.956658  11110001101000
       71   -0.070040  11110001011000
      246   -0.050842  11110001001100
      249    0.085288  10111001001100
      281   -0.051102  11110000101100
      463    0.061325  10110101001010

 State #    3  Energy =     -55.572304421  S =  0.500

      Det      Coef    Occupancy (Ignoring core)
      ---      ----    --------- --------- -----
        1   -0.066972  11110001110000
        2    0.926873  11101001110000
        3    0.061876  11011001110000
        6    0.050752  11100101110000
       36    0.114848  11110001101000
       37   -0.071392  11101001101000
       38   -0.100770  11011001101000
      106   -0.059662  11110000111000
      110   -0.067514  01111000111000
      141   -0.133269  11110001100100
      177    0.090693  11101001010100
      181    0.058422  11100101010100
      191    0.057398  11100011010100
      212    0.052323  11101000110100
      387    0.076874  11101001010010
      396    0.071133  10101101010010
      702    0.054141  11101001100001
      720    0.050946  11001011100001

 Davidson method: CPU/Wall time =           0.44 /           0.44 sec.

 Oscillator strength (invalid if E(1)/=E(GS)):
 -----------------------------------------
   State                        f
 -----------------------------------------
     2     F(REF-CI)=        0.0048509699
     3     F(REF-CI)=        0.0001217762
 -----------------------------------------

 Dipole moment matrix elements, x, y, z, in A.U.

 Dimension of ionized spaces for PT:
 (N-2) space:         1715 /  (N-1) space:         2842 /  N space:         2891
 (N+1) space:         2842 /  (N+2) space:         1715

 <<<Ionized spaces for internal:
         0:         1225 /      -1-0:         1960 /     0-1-0:         2891
  -1-0-1-0:         2842 / 0-1-0-1-0:         3381

 Diagonal elements of averaged one-particle density matrix:
       2       3       4       5       6       7       8
  0.9912  0.9791  0.9798  0.6793  0.3347  0.0193  0.0165
  0.9820  0.9666  0.6468  0.3433  0.0307  0.0172  0.0134

 Orbital energies:
 -------- Doubly-occupied orbitals (highest several orbs.) -------
             1
 -1.602685D+01
 -------- Active orbitals ----------------------------------------
             2            3            4            5            6
 -1.461943D+00-9.884214D-01-8.064397D-01-5.563336D-01-2.479712D-01
             7            8
  1.753475D-01 2.465820D-01
 -------- External orbitals (lowest several orbs.) ---------------
             9           10           11           12           13
  1.909174D-01 2.362394D-01 2.972995D-01 5.889380D-01 6.103724D-01
            14           15           16           17           18
  7.614868D-01 8.914106D-01 9.752612D-01 1.079050D+00 1.131488D+00

 *** Quasi-degeneracy checking

 === Det (|Ci| > 1.0D-01 and dE < 5.0D-03)

 # of small denominators (single excitations)
 State       dEmin  dE < 5.0D-03  dE < 5.0D-04  dE < 5.0D-05  dE < 5.0D-06
 ----- ----------- ------------- ------------- ------------- -------------
     1    5.00D-03             0             0             0             0
     2    5.00D-03             0             0             0             0
     3    5.00D-03             0             0             0             0

 # of small denominators (double excitations)
 State       dEmin  dE < 5.0D-03  dE < 5.0D-04  dE < 5.0D-05  dE < 5.0D-06
 ----- ----------- ------------- ------------- ------------- -------------
     1    5.00D-03             0             0             0             0
     2    5.00D-03             0             0             0             0
     3    5.00D-03             0             0             0             0

 *** Zeroth-Order Setup (Granovsky's zeroth-order vectors)
 Zeroth-order effective Hamiltonian
  (= Sum_i e(i)*<I|a+(i)a(i)|J> ):
                   1            2            3
     1 -6.952267D+00
     2  2.037738D-02-6.721202D+00
     3  2.584674D-02-8.991571D-03-6.622930D+00

 Zeroth-order vectors:
 State #    1
       MC st            1           2           3
       Coeff    9.928D-01  -8.915D-02  -7.941D-02
 State #    2
       MC st            2           1           3
       Coeff    9.933D-01   9.454D-02   6.692D-02
 State #    3
       MC st            3           2           1
       Coeff    9.946D-01  -7.395D-02   7.291D-02

 *** GMC-QDPT computation

 (Integral reading:  CPU/Wall time =           0.00 /           0.00 sec.)

 One-external:
   0 -ionized terms: CPU/Wall time =           0.03 /           0.03 sec.
 (-1)-ionized terms: CPU/Wall time =           0.09 /           0.09 sec.
 (+1)-ionized terms: CPU/Wall time =           0.02 /           0.02 sec.
 (+1)-ionized terms: CPU/Wall time =           0.01 /           0.01 sec.
 (+2)-ionized terms: CPU/Wall time =           0.00 /           0.00 sec.

 Internal:
 # of macro loops for internal contribution =         1 (input)
 Loop:    1
 Dimension of internal CISD space     =         0  (after screening)
 Space construction: CPU/Wall time =           0.02 /           0.02 sec.
 Internal terms:     CPU/Wall time =           0.00 /           0.00 sec.

 Two-external:
   0 -ionized terms: CPU/Wall time =           0.06 /           0.06 sec.
 (-1)-ionized terms: CPU/Wall time =           1.00 /           1.00 sec.
 (-2)-ionized terms: CPU/Wall time =           0.17 /           0.17 sec.

 Total time:         CPU/Wall time =           1.40 /           1.40 sec.

 ***                  ***
 *** GMC-QDPT Results ***
 ***                  ***

 Diagonal elements of effective Hamiltonian:
 Heff(  1) =   -55.88773493
 Heff(  2) =   -55.77438832
 Heff(  3) =   -55.67675971

 Off-diagonal elements of effective Hamiltonian:
                   1            2
     2 -1.035084D-02
     3 -1.730229D-02 2.299396D-03

 ******** GMC-QDPT energies ********
 ----------------------------------------------------------------------------
   State                        1st order                           2nd order
 ----------------------------------------------------------------------------
     1     E(REF-CI)=      -55.7847347850   E(GMC-QDPT2)=      -55.8900321893
     2     E(REF-CI)=      -55.6527865870   E(GMC-QDPT2)=      -55.7736000675
     3     E(REF-CI)=      -55.5723044214   E(GMC-QDPT2)=      -55.6752506991
 ----------------------------------------------------------------------------

 Excitation energies (invalid if E(1)/=E(GS)):
 ----------------------------------------------------------------------------
   State                        1st order                           2nd order
 ----------------------------------------------------------------------------

     TZ Sorted GMC-PT ENERGIES:
         1      -55.8900321893
         2      -55.7736000675
         3      -55.6752506991
     2     E(REF-CI)=        3.5904952 eV   E(GMC-QDPT2)=        3.1682810 eV
     3     E(REF-CI)=        5.7805276 eV   E(GMC-QDPT2)=        5.8445050 eV
 ----------------------------------------------------------------------------

 Main characters of perturbed GMC-QDPT states:

 State #    1  Energy =     -55.890032189  S =  0.500

      Det      Coef    Occupancy (Ignoring core)
      ---      ----    --------- --------- -----
        1    0.963291  11110001110000
        2    0.050763  11101001110000
       36    0.062991  11110001101000
      141   -0.069072  11110001100100
      179    0.079552  10111001010100
      211   -0.054639  11110000110100
      393    0.064090  10110101010010
      717    0.061722  11010011100001

 State #    2  Energy =     -55.773600068  S =  0.500

      Det      Coef    Occupancy (Ignoring core)
      ---      ----    --------- --------- -----
        1   -0.062665  11110001110000
        2   -0.092100  11101001110000
       36    0.960572  11110001101000
       71   -0.069207  11110001011000
      246   -0.051153  11110001001100
      249    0.085643  10111001001100
      281   -0.051282  11110000101100
      463    0.061571  10110101001010

 State #    3  Energy =     -55.675250699  S =  0.500

      Det      Coef    Occupancy (Ignoring core)
      ---      ----    --------- --------- -----
        1   -0.070779  11110001110000
        2    0.930349  11101001110000
        3    0.060793  11011001110000
        6    0.050752  11100101110000
       36    0.081059  11110001101000
       37   -0.071030  11101001101000
       38   -0.100702  11011001101000
      106   -0.061417  11110000111000
      110   -0.067851  01111000111000
      141   -0.131823  11110001100100
      177    0.091001  11101001010100
      181    0.058617  11100101010100
      191    0.057677  11100011010100
      212    0.052637  11101000110100
      387    0.077209  11101001010010
      396    0.071380  10101101010010
      702    0.054064  11101001100001
      720    0.051142  11001011100001

 <<<Max |V/de| = 6.022D-02  Thresh = 1.000D+00

 Oscillator strength (invalid if E(1)/=E(GS)):
 ----------------------------------------------------------------------------
   State                        1st order                           2nd order
 ----------------------------------------------------------------------------
     2     F(REF-CI)=        0.0048509699     F(GMC-PT2)=        0.0042664133
     3     F(REF-CI)=        0.0001217762     F(GMC-PT2)=        0.0001737985
 ----------------------------------------------------------------------------

 Dipole moment matrix elements, x, y, z, in A.U.
States    1    1       -0.3634859367       -0.3451368561        0.5406507106
States    1    2        0.0016474822        0.1186843111        0.2021774104
States    1    3       -0.0055528601       -0.0258541642       -0.0226827948
States    2    1        0.0016474822        0.1186843111        0.2021774104
States    2    2       -0.2767716584       -0.4722271076        0.4692989982
States    2    3        0.0534232368       -0.0033888750       -0.0483198400
States    3    1       -0.0055528601       -0.0258541642       -0.0226827948
States    3    2        0.0534232368       -0.0033888750       -0.0483198400
States    3    3       -1.0546917401       -0.0636265640        0.7665578779

 Oscillator strength (valid only when positive): 
 ----------------------------------------------------------------------------
  States                        1st order                           2nd order
 ----------------------------------------------------------------------------
  1  1     F(REF-CI)=        0.0000000000     F(GMC-PT2)=        0.0000000000
  1  2     F(REF-CI)=       -0.0048509699     F(GMC-PT2)=       -0.0042664133
  1  3     F(REF-CI)=       -0.0001217762     F(GMC-PT2)=       -0.0001737985
  2  1     F(REF-CI)=        0.0048509699     F(GMC-PT2)=        0.0042664133
  2  2     F(REF-CI)=        0.0000000000     F(GMC-PT2)=        0.0000000000
  2  3     F(REF-CI)=       -0.0005369554     F(GMC-PT2)=       -0.0003409664
  3  1     F(REF-CI)=        0.0001217762     F(GMC-PT2)=        0.0001737985
  3  2     F(REF-CI)=        0.0005369554     F(GMC-PT2)=        0.0003409664
  3  3     F(REF-CI)=        0.0000000000     F(GMC-PT2)=        0.0000000000
 CPU     0: STEP CPU TIME=     1.91 TOTAL CPU TIME=         14.3 (      0.2 MIN)
 TOTAL WALL CLOCK TIME=         14.7 SECONDS, CPU UTILIZATION IS    97.07%

     !!! DIABATIZATION FOR REF CI STATES !!!

 *******************************************************
          $DMO GROUP FOUND IN THE INPUT.
        DIABATIZATION OF ADIABATIC STATES BEGINS.
     PROGRAMMED BY TAO ZENG (CARLETON UNIVERSITY).
               Email: toby.zeng@carleton.ca
     See T. Zeng, J. Chem. Phys. 2017, 146, 144103
 *******************************************************

 *************************************************************************
     STEP 1: TRANSFORMATION OF ADIABATIC STATES TO THE DMO REPRESENTATION
         See Atchity and Ruedenberg, J. Chem. Phys. 1999, 111, 2910
 *************************************************************************

Read in Diabatic Molecualr Orbitals:

                      1          2          3          4          5

    1  N  1  S    0.008609   0.000000   0.000000  -0.013219   0.279491
    2  N  1  S    0.442914  -0.000000   0.000000  -0.184329   0.867803
    3  N  1  S    0.276913   0.000000  -0.000000  -0.288315   0.144236
    4  N  1  X   -0.000000   0.493155  -0.024636  -0.000000  -0.000000
    5  N  1  Y    0.000000   0.024636   0.493155  -0.000000   0.000000
    6  N  1  Z    0.090197   0.000000   0.000000   0.593421   0.705309
    7  N  1  X   -0.000000   0.210628  -0.010522   0.000000   0.000000
    8  N  1  Y    0.000000   0.010522   0.210628  -0.000000  -0.000000
    9  N  1  Z   -0.004381   0.000000   0.000000   0.381592  -0.106092
   10  N  1 XX   -0.000457   0.010719  -0.000535  -0.012387   0.006153
   11  N  1 YY   -0.000457  -0.010719   0.000535  -0.012387   0.006153
   12  N  1 ZZ    0.000914  -0.000000   0.000000   0.024773  -0.012306
   13  N  1 XY    0.000000  -0.000618  -0.012377  -0.000000   0.000000
   14  N  1 XZ   -0.000000   0.026529  -0.001325  -0.000000   0.000000
   15  N  1 YZ    0.000000   0.001325   0.026529  -0.000000   0.000000
   16  H  2  S    0.194462  -0.176074   0.343485   0.112865  -0.523343
   17  H  2  S    0.003574  -0.023812   0.046452   0.024014  -0.054445
   18  H  2  X    0.018760   0.009101   0.022834   0.009336  -0.039151
   19  H  2  Y   -0.032493   0.022287  -0.020044  -0.016171   0.067811
   20  H  2  Z   -0.009251   0.008464  -0.016511   0.018769  -0.010566
   21  H  3  S    0.194462  -0.209430  -0.324227   0.112865  -0.523343
   22  H  3  S    0.003574  -0.028322  -0.043847   0.024014  -0.054445
   23  H  3  X    0.018760   0.006781  -0.023627   0.009336  -0.039151
   24  H  3  Y    0.032493  -0.024174  -0.017723   0.016171  -0.067811
   25  H  3  Z   -0.009251   0.010067   0.015585   0.018769  -0.010566
   26  H  4  S    0.194462   0.385503  -0.019258   0.112865  -0.523343
   27  H  4  S    0.003574   0.052134  -0.002604   0.024014  -0.054445
   28  H  4  X   -0.037519  -0.032295   0.001613  -0.018672   0.078302
   29  H  4  Y    0.000000   0.001067   0.021353  -0.000000   0.000000
   30  H  4  Z   -0.009251  -0.018530   0.000926   0.018769  -0.010566

                      6          7

    1  N  1  S    0.000000  -0.000000
    2  N  1  S    0.000000  -0.000000
    3  N  1  S   -0.000000   0.000000
    4  N  1  X   -0.930415  -0.002083
    5  N  1  Y   -0.002083   0.930415
    6  N  1  Z   -0.000000   0.000000
    7  N  1  X   -0.046866  -0.000105
    8  N  1  Y   -0.000105   0.046866
    9  N  1  Z   -0.000000   0.000000
   10  N  1 XX    0.001538   0.000003
   11  N  1 YY   -0.001538  -0.000003
   12  N  1 ZZ   -0.000000   0.000000
   13  N  1 XY   -0.000004   0.001776
   14  N  1 XZ    0.039985   0.000090
   15  N  1 YZ    0.000090  -0.039985
   16  H  2  S   -0.362630  -0.631354
   17  H  2  S   -0.065964  -0.114846
   18  H  2  X    0.002763  -0.037520
   19  H  2  Y    0.037435   0.040736
   20  H  2  Z    0.001882   0.003276
   21  H  3  S   -0.365454   0.629724
   22  H  3  S   -0.066477   0.114549
   23  H  3  X    0.002595   0.037532
   24  H  3  Y   -0.037617   0.040567
   25  H  3  Z    0.001896  -0.003268
   26  H  4  S    0.728084   0.001630
   27  H  4  S    0.132441   0.000297
   28  H  4  X   -0.062317  -0.000140
   29  H  4  Y    0.000055  -0.024345
   30  H  4  Z   -0.003778  -0.000008

NUMBER OF SUB ACTIVE SPACES:   1
ROTATE ACTIVE MOS TO DMOS IN EACH SUB-SPACE

SPACE  1:

OVERLAP BETWEEN ORTHONORMAL AND PRE-ORTHONORMAL REF. DMOS

             1           2           3           4           5

    1    0.9392710  -0.0314331  -0.0507368  -0.0187834   0.0212958
    2   -0.0314331   0.9923207  -0.0487572  -0.0434213   0.0637668
    3   -0.0507368  -0.0487572   0.8576794  -0.0480627   0.0380486
    4   -0.0187834  -0.0434213  -0.0480627   0.9905579  -0.0260550
    5    0.0212958   0.0637668   0.0380486  -0.0260550   1.2411841
    6   -0.0055743   0.0406113  -0.0556843  -0.0521104   0.0140846
    7    0.0121747   0.0187237   0.0793166   0.0406184   0.0888201

             6           7

    1   -0.0055743   0.0121747
    2    0.0406113   0.0187237
    3   -0.0556843   0.0793166
    4   -0.0521104   0.0406184
    5    0.0140846   0.0888201
    6    1.1380850  -0.0084779
    7   -0.0084779   1.1276886
REFERENCE DMOS AFTER ORTHONORMALIZATION:

                      1          2          3          4          5

    1  N  1  S    0.003021  -0.014891  -0.009857  -0.007925   0.227264
    2  N  1  S    0.451397  -0.036319  -0.011132  -0.159949   0.694187
    3  N  1  S    0.286057  -0.009905  -0.005036  -0.284166   0.106201
    4  N  1  X    0.009955   0.529315  -0.052126  -0.023276  -0.015916
    5  N  1  Y    0.020287   0.038923   0.509739  -0.006251  -0.075298
    6  N  1  Z    0.097273  -0.005755   0.022328   0.621198   0.584044
    7  N  1  X    0.007248   0.215413  -0.001589   0.006825  -0.010203
    8  N  1  Y    0.014411   0.023509   0.247512   0.012685  -0.010637
    9  N  1  Z    0.007462   0.023090   0.029140   0.387145  -0.079054
   10  N  1 XX   -0.000538   0.009928  -0.000930  -0.011996   0.004229
   11  N  1 YY   -0.001343  -0.011758  -0.001231  -0.013066   0.005343
   12  N  1 ZZ    0.001881   0.001830   0.002161   0.025061  -0.009572
   13  N  1 XY   -0.000921  -0.001470  -0.014930  -0.000944   0.000347
   14  N  1 XZ    0.001305   0.025736   0.002507   0.003055  -0.001731
   15  N  1 YZ    0.002568   0.003862   0.035076   0.003608   0.001478
   16  H  2  S    0.246465  -0.093293   0.468871   0.135482  -0.388570
   17  H  2  S    0.009216  -0.012875   0.063348   0.027446  -0.036630
   18  H  2  X    0.023756   0.014646   0.034417   0.013004  -0.031090
   19  H  2  Y   -0.037505   0.013880  -0.029352  -0.016355   0.052276
   20  H  2  Z   -0.010056   0.008486  -0.018294   0.017928  -0.008153
   21  H  3  S    0.177667  -0.195505  -0.435616   0.033518  -0.441406
   22  H  3  S   -0.001053  -0.027853  -0.063974   0.011079  -0.047389
   23  H  3  X    0.019177   0.007783  -0.027440   0.006466  -0.033987
   24  H  3  Y    0.033451  -0.019857  -0.022654   0.010151  -0.055877
   25  H  3  Z   -0.007635   0.012337   0.020586   0.020460  -0.008934
   26  H  4  S    0.242397   0.409872   0.084272   0.161629  -0.454857
   27  H  4  S    0.008619   0.053044   0.011841   0.032131  -0.047896
   28  H  4  X   -0.044016  -0.037372  -0.010428  -0.022901   0.066460
   29  H  4  Y    0.001938   0.002955   0.027566   0.002561   0.000708
   30  H  4  Z   -0.009903  -0.017655   0.000657   0.017727  -0.007082

                      6          7

    1  N  1  S   -0.003236  -0.016731
    2  N  1  S   -0.013344  -0.052503
    3  N  1  S   -0.012823  -0.000795
    4  N  1  X   -0.839870  -0.011299
    5  N  1  Y    0.028386   0.794715
    6  N  1  Z    0.022463  -0.070732
    7  N  1  X   -0.048495  -0.003443
    8  N  1  Y    0.012142   0.024077
    9  N  1  Z    0.019268  -0.010087
   10  N  1 XX    0.000347   0.000011
   11  N  1 YY   -0.001660   0.000331
   12  N  1 ZZ    0.001313  -0.000342
   13  N  1 XY   -0.000714   0.002660
   14  N  1 XZ    0.034504  -0.000253
   15  N  1 YZ    0.001532  -0.038252
   16  H  2  S   -0.284391  -0.570369
   17  H  2  S   -0.053426  -0.104688
   18  H  2  X    0.004431  -0.034178
   19  H  2  Y    0.029643   0.035056
   20  H  2  Z    0.001359   0.004166
   21  H  3  S   -0.322953   0.621519
   22  H  3  S   -0.058644   0.109445
   23  H  3  X    0.001749   0.037333
   24  H  3  Y   -0.031824   0.041332
   25  H  3  Z    0.003210  -0.004477
   26  H  4  S    0.643615   0.020939
   27  H  4  S    0.117179   0.001952
   28  H  4  X   -0.056042  -0.003126
   29  H  4  Y    0.001232  -0.023736
   30  H  4  Z   -0.001805   0.000252

 -------------------------------------------
       MAXIMIZING MORMO OVERLAP TERM        
 -------------------------------------------
   SWEEP    VALUE       PROGRESS
     0     4.86851
     1     6.75249     1.88397932
     2     6.80570     0.05321062
     3     6.80572     0.00001846
     4     6.80572     0.00000000
     5     6.80572    -0.00000000
     6     6.80572     0.00000000
 THE ROTATION IS DONE
ACTIVE ORBITALS AFTER MORMO:

                      1          2          3          4          5

    1  N  1  S    0.010636  -0.006941  -0.007869  -0.012144   0.081636
    2  N  1  S    0.416325  -0.028891  -0.038950  -0.200106   0.464324
    3  N  1  S    0.328914  -0.017500  -0.004596  -0.268487   0.484057
    4  N  1  X    0.000214   0.501807  -0.062541  -0.042417  -0.021229
    5  N  1  Y   -0.001696   0.031723   0.451211  -0.037957  -0.180127
    6  N  1  Z    0.086183  -0.013478   0.029544   0.635927   0.437838
    7  N  1  X    0.018090   0.248139   0.024371   0.062003  -0.036364
    8  N  1  Y    0.023551   0.015691   0.307464   0.055279   0.133660
    9  N  1  Z    0.035540   0.040697   0.020266   0.359877   0.089417
   10  N  1 XX    0.008359   0.001779   0.018093  -0.004939  -0.015179
   11  N  1 YY   -0.004646   0.000802  -0.011897  -0.004833   0.007520
   12  N  1 ZZ   -0.003714  -0.002581  -0.006196   0.009772   0.007659
   13  N  1 XY   -0.008839  -0.019580  -0.026377  -0.007862   0.009585
   14  N  1 XZ   -0.002909   0.014530   0.003450  -0.005007   0.010630
[...]
       19   -0.055975   -0.055975  -22+00+
      386    0.055046   -0.055046  2+2+0-0
      122    0.054888    0.054888  +2-200+
       54   -0.053748    0.053748  -2+200+
      109    0.052620   -0.052620  +-22+00
      176    0.049248   -0.049248  2+2+-00
       42    0.046709   -0.046709  22020+0
        6    0.045553   -0.045553  22200+0
        7    0.044514    0.044514  22-+0+0
       58    0.043688   -0.043688  2-02+0+
      178    0.043598    0.043598  2+-+200
      142    0.041635    0.041635  22+0200
       56   -0.040271    0.040271  2-+-+0+
      123    0.039085   -0.039085  +-2200+
      717    0.038468    0.038468  220+002
       74   -0.038245    0.038245  2022+00
       75   -0.037615   -0.037615  -+22+00
      472   -0.037351   -0.037351  2+020-+
      248    0.037183   -0.037183  2+02200
      192   -0.037093    0.037093  2+-+-0+
       64    0.036974   -0.036974  2-020++
      262   -0.035406   -0.035406  2+02-0+
       23    0.035234    0.035234  2--++0+
      720    0.033636    0.033636  2200+02
      716    0.033274    0.033274  22+0002
      144   -0.032123    0.032123  2-++200
      460   -0.031618   -0.031618  -++2+-0
      402   -0.031501    0.031501  2+-+0-+
       48   -0.029586    0.029586  2-02++0
      143   -0.029111   -0.029111  220+200
       89   -0.028944   -0.028944  -+2200+
      157    0.028321   -0.028321  220+-0+
      702    0.028292    0.028292  22+0+0-
      177    0.025806   -0.025806  2+20200
      213    0.025682   -0.025682  +2-+200
      463    0.025253   -0.025253  20+2020
      482   -0.025048    0.025048  20+-02+
      160    0.024002   -0.024002  220020+
      158    0.023868    0.023868  2-++-0+
      145   -0.023746   -0.023746  -2++200
      393    0.023250    0.023250  202+020
       46    0.022749   -0.022749  2-+-++0
      708   -0.022689    0.022689  2-++0+-
      112   -0.022647   -0.022647  +2-20+0
       57   -0.022507   -0.022507  -2+-+0+
      823    0.022333   -0.022333  20+2002
      390   -0.022215    0.022215  -+2++-0
      809    0.022156   -0.022156  20+2+0-
      807    0.022010   -0.022010  2++-+0-
      182    0.021769   -0.021769  2+-+-+0
      703   -0.021710   -0.021710  220++0-
      226   -0.020962    0.020962  +220-0+
      821    0.020657   -0.020657  2++-002
       21    0.020575   -0.020575  2-20+0+
      398    0.020501   -0.020501  20-++20

 State #    3  Energy =     -55.725660414

      Det      Coef        Coefp    Occupancy (Ignoring core)
      ---      ----        ----    --------- --------- -----
       36   -0.695330   -0.695330  22+2000
       37   -0.282193    0.282193  22+-+00
        2    0.249838   -0.249838  2220+00
        3    0.239662    0.239662  22-++00
       16    0.184487   -0.184487  222000+
       71   -0.162274    0.162274  2+22000
       17    0.161180    0.161180  22-+00+
        4    0.121384   -0.121384  2-2++00
       41   -0.118868    0.118868  22+-0+0
      351    0.117973    0.117973  22++0-0
       72   -0.102643   -0.102643  2+2-+00
       51   -0.100416    0.100416  22+-00+
       42    0.098881   -0.098881  22020+0
      107   -0.094927    0.094927  +22-+00
      106   -0.083088   -0.083088  +222000
      246    0.082023    0.082023  2++2-00
      121   -0.081350    0.081350  +22-00+
       52   -0.072445    0.072445  220200+
       18    0.069424   -0.069424  2-2+00+
       19    0.064724    0.064724  -22+00+
        5    0.062628    0.062628  -22++00
       55   -0.061911   -0.061911  220-+0+
      701   -0.060763   -0.060763  22++00-
      463    0.060381   -0.060381  20+2020
      281    0.055694   -0.055694  +2+2-00
      367    0.053150   -0.053150  220+0-+
      702   -0.052062   -0.052062  22+0+0-
      703    0.051754    0.051754  220++0-
       39   -0.050062   -0.050062  2-+2+00
       45    0.049482    0.049482  220-++0
      717    0.047984    0.047984  220+002
       61   -0.047887   -0.047887  220-0++
      736   -0.047825    0.047825  2+2+00-
      704    0.047642   -0.047642  2-+++0-
        1    0.047610   -0.047610  222+000
      262   -0.046419   -0.046419  2+02-0+
      282    0.043310    0.043310  +2+-200
      141    0.042532    0.042532  22++-00
      472   -0.038783   -0.038783  2+020-+
      718    0.038224   -0.038224  2-++002
       40   -0.036841    0.036841  -2+2+00
      807   -0.036213    0.036213  2++-+0-
      178   -0.035633   -0.035633  2+-+200
      353   -0.035271   -0.035271  220++-0
      821   -0.035267    0.035267  2++-002
      822    0.034600   -0.034600  2+02002
      288   -0.033116   -0.033116  +-+2-+0
      285    0.032540   -0.032540  02+2200
      211    0.032299    0.032299  +22+-00
       73   -0.031961    0.031961  2+-2+00
       54   -0.031764    0.031764  -2+200+
      808    0.031702   -0.031702  2+02+0-
      456    0.031476    0.031476  2++20-0
      720   -0.031195   -0.031195  2200+02
      466    0.030496    0.030496  20+-+20
       23   -0.030461   -0.030461  2--++0+
      156    0.028374   -0.028374  22+0-0+
      460   -0.028047   -0.028047  -++2+-0
      248    0.027729   -0.027729  2+02200
      716   -0.027572   -0.027572  22+0002
      212   -0.026142   -0.026142  +220200
      213   -0.026094    0.026094  +2-+200
      124   -0.025986    0.025986  022200+
      249    0.025848   -0.025848  20+2200
      148   -0.025037   -0.025037  2-++-+0
      457   -0.024980    0.024980  2++-+-0
      561    0.024511    0.024511  2+++--0
      144    0.024424   -0.024424  2-++200
      841    0.024416   -0.024416  +2+200-
       20    0.023687    0.023687  22-0+0+
       64    0.023204   -0.023204  2-020++
      297    0.022836   -0.022836  +202-0+
      143    0.022808    0.022808  220+200
      226    0.022245   -0.022245  +220-0+
      396   -0.022130   -0.022130  2020+20
      398   -0.021754    0.021754  20-++20
       86   -0.021599   -0.021599  2+2-00+
      110   -0.021546    0.021546  0222+00
      859    0.021518   -0.021518  02+2002
      711    0.021115   -0.021115  2-+0++-
      405    0.020863   -0.020863  2+-0+-+
      253    0.020664    0.020664  20+2-+0
      158   -0.020628   -0.020628  2-++-0+
      254    0.020479   -0.020479  -++2-+0
      181   -0.020469   -0.020469  2+20-+0

 ---------------------------------------
      - DIABATIC STATES IN CMO -        
 ---------------------------------------

 State #    1  Energy =     -55.785422410

      Det      Coef        Coefp    Occupancy (Ignoring core)
      ---      ----        ----    --------- --------- -----
       36   -0.672145   -0.672145  22+2000
        1    0.504053   -0.504053  222+000
        2   -0.472393    0.472393  2220+00
      106   -0.073931   -0.073931  +222000
      249    0.057836   -0.057836  20+2200
       71   -0.052844    0.052844  2+22000
      177   -0.051868    0.051868  2+20200
      142    0.048495    0.048495  22+0200
      387   -0.047725    0.047725  2+20+-0
       38    0.044128   -0.044128  2202+00
      463    0.043675   -0.043675  20+2020
      212    0.038880    0.038880  +220200
      110    0.038740   -0.038740  0222+00
      396    0.036457    0.036457  2020+20
      393   -0.035780   -0.035780  202+020
      191    0.035282    0.035282  2+20-0+
      281   -0.034798    0.034798  +2+2-00
      181    0.034422    0.034422  2+20-+0
      717   -0.032846   -0.032846  220+002
      179   -0.032233   -0.032233  202+200
      246    0.031587    0.031587  2++2-00
       40    0.030335   -0.030335  -2+2+00
      472   -0.028743   -0.028743  2+020-+
      737   -0.027872    0.027872  2+20+0-
      702    0.027715    0.027715  22+0+0-
       20   -0.027578   -0.027578  22-0+0+
      456    0.027153    0.027153  2++20-0
      720    0.025584    0.025584  2200+02
        6   -0.025110    0.025110  22200+0
      248    0.024915   -0.024915  2+02200
       39   -0.023823   -0.023823  2-+2+00
      113   -0.023553    0.023553  +-220+0
      708    0.023308   -0.023308  2-++0+-
      122    0.023178    0.023178  +2-200+
      402    0.022408   -0.022408  2+-+0-+
      711   -0.022171    0.022171  2-+0++-
      143   -0.021945   -0.021945  220+200
       10    0.021694    0.021694  22-0++0
      460   -0.021467   -0.021467  -++2+-0
       54   -0.021437    0.021437  -2+200+
      859    0.021315   -0.021315  02+2002
       64    0.021122   -0.021122  2-020++
      405   -0.020755    0.020755  2+-0+-+
      857    0.020692    0.020692  +202002
      288   -0.020570   -0.020570  +-+2-+0
      144    0.020139   -0.020139  2-++200

 State #    2  Energy =     -55.827800131

      Det      Coef        Coefp    Occupancy (Ignoring core)
      ---      ----        ----    --------- --------- -----
        1   -0.772352    0.772352  222+000
        2   -0.526942    0.526942  2220+00
       36   -0.191875   -0.191875  22+2000
      141   -0.112144   -0.112144  22++-00
      179    0.071209    0.071209  202+200
       37    0.065049   -0.065049  22+-+00
      211   -0.063720   -0.063720  +22+-00
      107    0.056310   -0.056310  +22-+00
      717    0.050061    0.050061  220+002
      393    0.049981    0.049981  202+020
       38    0.049072   -0.049072  2202+00
        3    0.047095    0.047095  22-++00
      386    0.042269   -0.042269  2+2+0-0
       71   -0.041348    0.041348  2+22000
      396    0.038948    0.038948  2020+20
      177   -0.037871    0.037871  2+20200
       76   -0.035099   -0.035099  2+2-0+0
      402   -0.033721    0.033721  2+-+0-+
      708   -0.033680    0.033680  2-++0+-
      110    0.033608   -0.033608  0222+00
      701   -0.032987   -0.032987  22++00-
      218   -0.030629    0.030629  +-2+-+0
      144   -0.030140    0.030140  2-++200
      720    0.030040    0.030040  2200+02
      178    0.029464    0.029464  2+-+200
      176    0.029242   -0.029242  2+2+-00
      357    0.029131    0.029131  220+020
      387   -0.028041    0.028041  2+20+-0
       74    0.026537   -0.026537  2022+00
      390   -0.026190    0.026190  -+2++-0
        4   -0.025080    0.025080  2-2++00
      711   -0.024265    0.024265  2-+0++-
      405   -0.023434    0.023434  2+-0+-+
      191    0.023233    0.023233  2+20-0+
      707   -0.023162   -0.023162  220+0+-
      736    0.023001   -0.023001  2+2+00-
      367    0.022941   -0.022941  220+0-+
      106   -0.022399   -0.022399  +222000
       29    0.022241    0.022241  2--+0++
      181    0.022047    0.022047  2+20-+0
       51    0.021996   -0.021996  22+-00+
      789    0.021749    0.021749  022+002
      157   -0.021478    0.021478  220+-0+
      227    0.021384    0.021384  +2-+-0+
     1051    0.021243    0.021243  2+++0--
       40    0.020625   -0.020625  -2+2+00
      121   -0.020503    0.020503  +22-00+
        6   -0.020423    0.020423  22200+0
      143    0.020064    0.020064  220+200

 State #    3  Energy =     -55.725660414

      Det      Coef        Coefp    Occupancy (Ignoring core)
      ---      ----        ----    --------- --------- -----
       36   -0.666814   -0.666814  22+2000
        2    0.613014   -0.613014  2220+00
        1   -0.293717    0.293717  222+000
      141    0.102799    0.102799  22++-00
       38   -0.076153    0.076153  2202+00
      177    0.065530   -0.065530  2+20200
      249    0.060757   -0.060757  20+2200
      387    0.055976   -0.055976  2+20+-0
        3   -0.055539   -0.055539  22-++00
      108    0.051725    0.051725  +2-2+00
      396   -0.047890   -0.047890  2020+20
       37   -0.047260    0.047260  22+-+00
      702   -0.045460   -0.045460  22+0+0-
      110   -0.045214    0.045214  0222+00
      181   -0.043139   -0.043139  2+20-+0
      463    0.042327   -0.042327  20+2020
      191   -0.040517   -0.040517  2+20-0+
      212   -0.040230   -0.040230  +220200
        6    0.039444   -0.039444  22200+0
      246    0.039328    0.039328  2++2-00
      281   -0.035853    0.035853  +2+2-00
      456    0.035026    0.035026  2++20-0
      720   -0.033222   -0.033222  2200+02
       39   -0.032615   -0.032615  2-+2+00
      737    0.032315   -0.032315  2+20+0-
       71   -0.030657    0.030657  2+22000
      472   -0.030445   -0.030445  2+020-+
       20    0.029104    0.029104  22-0+0+
      405    0.028043   -0.028043  2+-0+-+
      711    0.027801   -0.027801  2-+0++-
       10   -0.025234   -0.025234  22-0++0
      122    0.025055    0.025055  +2-200+
       43   -0.023785   -0.023785  2-+20+0
       54   -0.023211    0.023211  -2+200+
      113   -0.022905    0.022905  +-220+0
       72    0.022851    0.022851  2+2-+00
       42   -0.022801    0.022801  22020+0
      356    0.022468    0.022468  22+0020
      109    0.022214   -0.022214  +-22+00
      391   -0.021659    0.021659  2+20020
      106    0.021576    0.021576  +222000
      360   -0.021167   -0.021167  2200+20
       64    0.020987   -0.020987  2-020++
        4   -0.020883    0.020883  2-2++00
      148   -0.020826   -0.020826  2-++-+0
      354    0.020047   -0.020047  2-+++-0

 ---------------------------------------
    -DIABATIC STATES IN PROTOTYPES-     
 ---------------------------------------

     STATE:    1
 Group Ref#    Coefficients
     1    1    0.762133
     2    2   -0.100461
     3    3    0.059734

WEIGHT OF LISTED PROTOTYPES:   59.45%

     STATE:    2
 Group Ref#    Coefficients
     1    1   -0.335283
     2    2    0.189207
     3    3    0.429419

WEIGHT OF LISTED PROTOTYPES:   33.26%

     STATE:    3
 Group Ref#    Coefficients
     1    1    0.059943
     2    2    0.129117
     3    3    0.709959

WEIGHT OF LISTED PROTOTYPES:   52.43%

     DIRECT MAX. DIABATIZATION FINISHED    
 CPU     0: STEP CPU TIME=     0.25 TOTAL CPU TIME=         14.5 (      0.2 MIN)
 TOTAL WALL CLOCK TIME=         14.9 SECONDS, CPU UTILIZATION IS    97.12%

DIABATS FOR SPIN-ORBIT CALCULATION ARE READY

TRANSITION DIPOLES BETWEEN ADIABATS (in A.U.):

STATE PAIR      X         Y         Z
    1    1 -0.363486 -0.345137  0.540651
    2    1  0.001647  0.118684  0.202177
    2    2 -0.276772 -0.472227  0.469299
    3    1 -0.005553 -0.025854 -0.022683
    3    2  0.053423 -0.003389 -0.048320
    3    3 -1.054692 -0.063627  0.766558


TRANSITION DIPOLES BETWEEN DIABATS (in A.U.):

STATE PAIR      X         Y         Z
    1    1 -0.407954 -0.251251  0.743274
    2    1 -0.183197  0.039820  0.044234
    2    2 -0.828146 -0.223480  0.627805
    3    1  0.151493 -0.087536 -0.035627
    3    2  0.274824 -0.198852 -0.187332
    3    3 -0.458850 -0.406260  0.405429

TRANSITION DIPOLES BETWEEN DIRECT MAX. DIABATS (in A.U.):

STATE PAIR      X         Y         Z
    1    1 -0.502527 -0.242167  0.749963
    2    1 -0.168289 -0.012756 -0.026785
    2    2 -0.544402 -0.365114  0.487316
    3    1  0.285667 -0.144248 -0.091381
    3    2  0.262853 -0.182877 -0.198470
    3    3 -0.648020 -0.273709  0.539228
 No $TRANST Group Found.
 Quit without doing spin-orbit coupling
 ..... DONE WITH MP2 ENERGY .....
 CPU     0: STEP CPU TIME=     0.00 TOTAL CPU TIME=         14.5 (      0.2 MIN)
 TOTAL WALL CLOCK TIME=         14.9 SECONDS, CPU UTILIZATION IS    97.06%
            100000000  WORDS OF DYNAMIC MEMORY USED
 EXECUTION OF GAMESS TERMINATED NORMALLY Wed Nov 16 18:16:51 2022
 DDI: 715512 bytes (0.7 MB / 0 MWords) used by master data server.

 ----------------------------------------
 CPU timing information for all processes
 ========================================
 0: 14.215 + 0.308 = 14.524
 ----------------------------------------
Note: The following floating-point exceptions are signalling: IEEE_DENORMAL
 ddikick.x: exited gracefully.
unset echo
----- accounting info -----
Files used on the master node io002 were:
-rw-r--r-- 1 bsonghao nooijen   20714 Nov 16 18:16 /scratch/bsonghao/nh3_diabatization_2d_at_mode_7_8_dist-0.8_-0.8.F05
-rw-r--r-- 1 bsonghao nooijen  363520 Nov 16 18:16 /scratch/bsonghao/nh3_diabatization_2d_at_mode_7_8_dist-0.8_-0.8.F09
-rw-r--r-- 1 bsonghao nooijen 1995920 Nov 16 18:16 /scratch/bsonghao/nh3_diabatization_2d_at_mode_7_8_dist-0.8_-0.8.F10
-rw-r--r-- 1 bsonghao nooijen  131264 Nov 16 18:16 /scratch/bsonghao/nh3_diabatization_2d_at_mode_7_8_dist-0.8_-0.8.F13
-rw-r--r-- 1 bsonghao nooijen  180312 Nov 16 18:16 /scratch/bsonghao/nh3_diabatization_2d_at_mode_7_8_dist-0.8_-0.8.F15
-rw-r--r-- 1 bsonghao nooijen       0 Nov 16 18:16 /scratch/bsonghao/nh3_diabatization_2d_at_mode_7_8_dist-0.8_-0.8.F16
-rw-r--r-- 1 bsonghao nooijen    9808 Nov 16 18:16 /scratch/bsonghao/nh3_diabatization_2d_at_mode_7_8_dist-0.8_-0.8.F70
-rw-r--r-- 1 bsonghao nooijen    9808 Nov 16 18:16 /scratch/bsonghao/nh3_diabatization_2d_at_mode_7_8_dist-0.8_-0.8.F71
-rw-r--r-- 1 bsonghao nooijen   19608 Nov 16 18:16 /scratch/bsonghao/nh3_diabatization_2d_at_mode_7_8_dist-0.8_-0.8.F72
-rw-r--r-- 1 bsonghao nooijen   19608 Nov 16 18:16 /scratch/bsonghao/nh3_diabatization_2d_at_mode_7_8_dist-0.8_-0.8.F73
-rw-r--r-- 1 bsonghao nooijen 1920824 Nov 16 18:16 /scratch/bsonghao/nh3_diabatization_2d_at_mode_7_8_dist-0.8_-0.8.F74
-rw-r--r-- 1 bsonghao nooijen       0 Nov 16 18:16 /scratch/bsonghao/nh3_diabatization_2d_at_mode_7_8_dist-0.8_-0.8.F75
-rw-r--r-- 1 bsonghao nooijen   58848 Nov 16 18:16 /scratch/bsonghao/nh3_diabatization_2d_at_mode_7_8_dist-0.8_-0.8.F76
-rw-r--r-- 1 bsonghao nooijen       0 Nov 16 18:16 /scratch/bsonghao/nh3_diabatization_2d_at_mode_7_8_dist-0.8_-0.8.F77
-rw-r--r-- 1 bsonghao nooijen    1864 Nov 16 18:16 /scratch/bsonghao/nh3_diabatization_2d_at_mode_7_8_dist-0.8_-0.8.F78
-rw-r--r-- 1 bsonghao nooijen   39208 Nov 16 18:16 /scratch/bsonghao/nh3_diabatization_2d_at_mode_7_8_dist-0.8_-0.8.F79
-rw-r--r-- 1 bsonghao nooijen     104 Nov 16 18:16 /scratch/bsonghao/nh3_diabatization_2d_at_mode_7_8_dist-0.8_-0.8.F80
-rw-r--r-- 1 bsonghao nooijen   13472 Nov 16 18:16 /scratch/bsonghao/nh3_diabatization_2d_at_mode_7_8_dist-0.8_-0.8.F81
-rw-r--r-- 1 bsonghao nooijen      16 Nov 16 18:16 /scratch/bsonghao/nh3_diabatization_2d_at_mode_7_8_dist-0.8_-0.8.F82
-rw-r--r-- 1 bsonghao nooijen   19216 Nov 16 18:16 /scratch/bsonghao/nh3_diabatization_2d_at_mode_7_8_dist-0.8_-0.8.F83
-rw-r--r-- 1 bsonghao nooijen   29712 Nov 16 18:16 /scratch/bsonghao/nh3_diabatization_2d_at_mode_7_8_dist-0.8_-0.8.F84
-rw-r--r-- 1 bsonghao nooijen  401576 Nov 16 18:16 /scratch/bsonghao/nh3_diabatization_2d_at_mode_7_8_dist-0.8_-0.8.F85
-rw-r--r-- 1 bsonghao nooijen  903672 Nov 16 18:16 /scratch/bsonghao/nh3_diabatization_2d_at_mode_7_8_dist-0.8_-0.8.F86
-rw-r--r-- 1 bsonghao nooijen     656 Nov 16 18:16 /scratch/bsonghao/nh3_diabatization_2d_at_mode_7_8_dist-0.8_-0.8.F87
-rw-r--r-- 1 bsonghao nooijen   49904 Nov 16 18:16 /scratch/bsonghao/nh3_diabatization_2d_at_mode_7_8_dist-0.8_-0.8.F88
-rw-r--r-- 1 bsonghao nooijen     240 Nov 16 18:16 /scratch/bsonghao/nh3_diabatization_2d_at_mode_7_8_dist-0.8_-0.8.F89
-rw-r--r-- 1 bsonghao nooijen       0 Nov 16 18:16 /scratch/bsonghao/nh3_diabatization_2d_at_mode_7_8_dist-0.8_-0.8.F90
-rw-r--r-- 1 bsonghao nooijen   13760 Nov 16 18:16 /scratch/bsonghao/nh3_diabatization_2d_at_mode_7_8_dist-0.8_-0.8.F91
-rw-r--r-- 1 bsonghao nooijen   22776 Nov 16 18:16 /scratch/bsonghao/nh3_diabatization_2d_at_mode_7_8_dist-0.8_-0.8.F92
-rw-r--r-- 1 bsonghao nooijen   23168 Nov 16 18:16 /scratch/bsonghao/nh3_diabatization_2d_at_mode_7_8_dist-0.8_-0.8.F93
-rw-r--r-- 1 bsonghao nooijen   22776 Nov 16 18:16 /scratch/bsonghao/nh3_diabatization_2d_at_mode_7_8_dist-0.8_-0.8.F94
-rw-r--r-- 1 bsonghao nooijen   13760 Nov 16 18:16 /scratch/bsonghao/nh3_diabatization_2d_at_mode_7_8_dist-0.8_-0.8.F95
-rw-r--r-- 1 bsonghao nooijen   29440 Nov 16 18:16 /scratch/bsonghao/nh3_diabatization_2d_at_mode_7_8_dist-0.8_-0.8.F96
-rw-r--r-- 1 bsonghao nooijen    1184 Nov 16 18:16 /scratch/bsonghao/nh3_diabatization_2d_at_mode_7_8_dist-0.8_-0.8.F97
-rw-r--r-- 1 bsonghao nooijen    9808 Nov 16 18:16 /scratch/bsonghao/nh3_diabatization_2d_at_mode_7_8_dist-0.8_-0.8.F98
-rw-r--r-- 1 bsonghao nooijen   30264 Nov 16 18:16 /scratch/bsonghao/nh3_diabatization_2d_at_mode_7_8_dist-0.8_-0.8.F99
ls: No match.
ls: No match.
ls: No match.
Wed 16 Nov 2022 06:16:54 PM EST
0.279u 0.054s 0:18.61 1.7%	0+0k 272+232io 1pf+0w
