----- GAMESS execution script 'rungms' -----
This job is running on host io002
under operating system Linux at Wed 16 Nov 2022 07:14:05 PM EST
Available scratch disk space (Kbyte units) at beginning of the job is
Filesystem       1K-blocks       Used   Available Use% Mounted on
/dev/sdc1      15378471580 3278917120 11318349060  23% /scratch
GAMESS temporary binary files will be written to /scratch/bsonghao
GAMESS supplementary output files will be written to /home/bsonghao/.gamess_ascii_files/267638
Copying input file nh3_diabatization_2d_at_mode_7_8_dist-0.1_-0.4.inp to your run's scratch directory...
cp nh3_diabatization_2d_at_mode_7_8_dist-0.1_-0.4.inp /scratch/bsonghao/nh3_diabatization_2d_at_mode_7_8_dist-0.1_-0.4.F05
unset echo
/home/bjb2chen/gamess/ddikick.x /home/bjb2chen/gamess/gamess.00.x nh3_diabatization_2d_at_mode_7_8_dist-0.1_-0.4 -ddi 1 1 io002 -scr /scratch/bsonghao

 Distributed Data Interface kickoff program.
 Initiating 1 compute processes on 1 nodes to run the following command:
 /home/bjb2chen/gamess/gamess.00.x nh3_diabatization_2d_at_mode_7_8_dist-0.1_-0.4 

          ******************************************************
          *         GAMESS VERSION = 02 AUG 2018 (R2)         *
          *             FROM IOWA STATE UNIVERSITY             *
          * M.W.SCHMIDT, K.K.BALDRIDGE, J.A.BOATZ, S.T.ELBERT, *
          *   M.S.GORDON, J.H.JENSEN, S.KOSEKI, N.MATSUNAGA,   *
          *          K.A.NGUYEN, S.J.SU, T.L.WINDUS,           *
          *       TOGETHER WITH M.DUPUIS, J.A.MONTGOMERY       *
          *         J.COMPUT.CHEM.  14, 1347-1363(1993)        *
          **************** 64 BIT LINUX VERSION ****************

  SINCE 1993, STUDENTS AND POSTDOCS WORKING AT IOWA STATE UNIVERSITY
  AND ALSO IN THEIR VARIOUS JOBS AFTER LEAVING ISU HAVE MADE IMPORTANT
  CONTRIBUTIONS TO THE CODE:
     IVANA ADAMOVIC, CHRISTINE AIKENS, YURI ALEXEEV, POOJA ARORA,
     ANDREY ASADCHEV, ROB BELL, PRADIPTA BANDYOPADHYAY, JONATHAN BENTZ,
     BRETT BODE, KURT BRORSEN, CALEB CARLIN, GALINA CHABAN, WEI CHEN,
     CHEOL HO CHOI, PAUL DAY, ALBERT DEFUSCO, NUWAN DESILVA, TIM DUDLEY,
     DMITRI FEDOROV, ALEX FINDLATER, GRAHAM FLETCHER, MARK FREITAG,
     KURT GLAESEMANN, ANASTASIA GUININA,
     DAN KEMP, GRANT MERRILL, NORIYUKI MINEZAWA, JONATHAN MULLIN,
     TAKESHI NAGATA, SEAN NEDD, HEATHER NETZLOFF, BOSILJKA NJEGIC, RYAN OLSON,
     MIKE PAK, BUU PHAM,
     SPENCER PRUITT, LUKE ROSKOP, JIM SHOEMAKER, LYUDMILA SLIPCHENKO,
     TONY SMITH, SAROM SOK LEANG, JIE SONG, TETSUYA TAKETSUGU, SIMON WEBB,
     PENG XU, SOOHAENG YOO, FEDERICO ZAHARIEV

  ADDITIONAL CODE HAS BEEN PROVIDED BY COLLABORATORS IN OTHER GROUPS:
     IOWA STATE UNIVERSITY:
          JOE IVANIC, AARON WEST, LAIMUTIS BYTAUTAS, KLAUS RUEDENBERG
     UNIVERSITY OF TOKYO: KIMIHIKO HIRAO, TAKAHITO NAKAJIMA,
          TAKAO TSUNEDA, MUNEAKI KAMIYA, SUSUMU YANAGISAWA,
          KIYOSHI YAGI, MAHITO CHIBA, SEIKEN TOKURA, NAOAKI KAWAKAMI
     UNIVERSITY OF AARHUS: FRANK JENSEN
     UNIVERSITY OF IOWA: VISVALDAS KAIRYS, HUI LI
     NATIONAL INST. OF STANDARDS AND TECHNOLOGY: WALT STEVENS, DAVID GARMER
     UNIVERSITY OF PISA: BENEDETTA MENNUCCI, JACOPO TOMASI
     UNIVERSITY OF MEMPHIS: HENRY KURTZ, PRAKASHAN KORAMBATH
     UNIVERSITY OF ALBERTA: TOBY ZENG, MARIUSZ KLOBUKOWSKI
     UNIVERSITY OF NEW ENGLAND: MARK SPACKMAN
     MIE UNIVERSITY: HIROAKI UMEDA
     NAT. INST. OF ADVANCED INDUSTRIAL SCIENCE AND TECHNOLOGY: KAZUO KITAURA
     MICHIGAN STATE UNIVERSITY:
          KAROL KOWALSKI, MARTA WLOCH, JEFFREY GOUR, JESSE LUTZ,
          WEI LI, JUN SHEN, J. EMILIANO DEUSTUA, PIOTR PIECUCH
     UNIVERSITY OF MINNESOTA:
          YINAN SHU
     UNIVERSITY OF SILESIA: MONIKA MUSIAL, STANISLAW KUCHARSKI
     FACULTES UNIVERSITAIRES NOTRE-DAME DE LA PAIX:
          OLIVIER QUINET, BENOIT CHAMPAGNE
     UNIVERSITY OF CALIFORNIA - SANTA BARBARA: BERNARD KIRTMAN
     INSTITUTE FOR MOLECULAR SCIENCE:
          KAZUYA ISHIMURA, MICHIO KATOUDA, AND SHIGERU NAGASE
     UNIVERSITY OF NOTRE DAME: ANNA POMOGAEVA, DAN CHIPMAN
     KYUSHU UNIVERSITY:
          HARUYUKI NAKANO,
          FENG LONG GU, JACEK KORCHOWIEC, MARCIN MAKOWSKI, AND YURIKO AOKI,
          HIROTOSHI MORI AND EISAKU MIYOSHI
     PENNSYLVANIA STATE UNIVERSITY:
          TZVETELIN IORDANOV, CHET SWALINA, JONATHAN SKONE,
          SHARON HAMMES-SCHIFFER
     WASEDA UNIVERSITY:
          MASATO KOBAYASHI, TOMOKO AKAMA, TSUGUKI TOUMA,
          TAKESHI YOSHIKAWA, YASUHIRO IKABATA, JUNJI SEINO,
          YUYA NAKAJIMA, HIROMI NAKAI
     NANJING UNIVERSITY: SHUHUA LI
     UNIVERSITY OF NEBRASKA:
          PEIFENG SU, DEJUN SI, NANDUN THELLAMUREGE, YALI WANG, HUI LI
     UNIVERSITY OF ZURICH: ROBERTO PEVERATI, KIM BALDRIDGE
     N. COPERNICUS UNIVERSITY AND JACKSON STATE UNIVERSITY:
          MARIA BARYSZ
     UNIVERSITY OF COPENHAGEN: Jimmy Kromann, CASPER STEINMANN
     TOKYO INSTITUTE OF TECHNOLOGY: HIROYA NAKATA
     NAGOYA UNIVERSITY: YOSHIO NISHIMOTO, STEPHAN IRLE
     MOSCOW STATE UNIVERSITY: VLADIMIR MIRONOV

 EXECUTION OF GAMESS BEGUN Wed Nov 16 19:14:05 2022

            ECHO OF THE FIRST FEW INPUT CARDS -
 INPUT CARD> $system kdiag=3 mwords=100 memddi=1000 parall=.t. $end                         
 INPUT CARD> $contrl runtyp=energy ispher=1 $end                                            
 INPUT CARD> $contrl icut=9 itol=20 inttyp=rysquad qmttol=1.0d-05 nosym=1 $end              
 INPUT CARD> $scf    npunch=2 conv=1.0d-06 dirscf=.t.      $end                             
 INPUT CARD> $contrl scftyp=mcscf  mult=2 maxit=200 icharg=1 mplevl=2 $end                  
 INPUT CARD> $guess  guess=moread norb=29 purify=.t. $end                                   
 INPUT CARD> $basis  gbasis=ccd $end                                                        
 INPUT CARD> $mcscf  cistep=gmcci fullnr=.t. finci=mos                                      
 INPUT CARD>         acurcy=1.d-6 maxit=100 $end                                            
 INPUT CARD> $trans  dirtrf=.t. $end                                                        
 INPUT CARD> $mrmp   mrpt=gmcpt rdvecs=.f. $end                                             
 INPUT CARD> $gmcpt  nmofzc=0 nmodoc=1 nmoact=7 nelact=7 stsym(1)=A                         
 INPUT CARD>         reftyp=ormas nspace=1 mstart(1)=2 mine(1)=7 maxe(1)=7                  
 INPUT CARD>         kstate(1)=1,1,1                                                        
 INPUT CARD>         wstate(1)=1,1,1                                                        
 INPUT CARD>         iwgt=0 thrwgt=-1.0 krot=.f. kszdoe=.f. knospn=.f.                      
 INPUT CARD>         thrde=-1.0 edshft=0.02 $end                                            
 INPUT CARD> $data                                                                          
 INPUT CARD> NH3+ 3 states calculation at NH3 structure.                                    
 INPUT CARD> c1                                                                             
 INPUT CARD>N 7.0 0.024915672 0.006228902999999999 -0.1693804682                            
 INPUT CARD>H 1.0 -0.7071924869999999 0.6463305678 0.2863932381                             
 INPUT CARD>H 1.0 -0.630767162 -0.6599075418 0.3321147211                                   
 INPUT CARD>H 1.0 0.991749708 -0.07297575199999998 0.15086941710000001                      
 INPUT CARD>$end                                                                            
 INPUT CARD>--- OPTIMIZED RHF      MO-S --- GENERATED AT Mon Nov 14 16:47:08 2022           
 INPUT CARD>E=      -56.3825050291, E(NUC)=   11.8429239490                                 
 INPUT CARD> $VEC                                                                           
 INPUT CARD> 1  1-1.00134066E+00-2.25158504E-03 3.44925845E-03 0.00000000E+00 0.00000000E+00
 INPUT CARD> 1  2-2.13170927E-03 0.00000000E+00 0.00000000E+00 6.57129898E-04-6.87950443E-05
 INPUT CARD> 1  3-6.87950443E-05 1.37590089E-04 0.00000000E+00 0.00000000E+00 0.00000000E+00
 INPUT CARD> 1  4 3.25502815E-04-4.84772356E-04 3.62525460E-04-6.27912517E-04-3.45956485E-04
 INPUT CARD> 1  5 3.25502815E-04-4.84772356E-04 3.62525460E-04 6.27912517E-04-3.45956485E-04
 INPUT CARD> 1  6 3.25502815E-04-4.84772356E-04-7.25050921E-04 0.00000000E+00-3.45956485E-04
 INPUT CARD> 2  1 1.31286642E-02-4.05911371E-01-2.82090992E-01 0.00000000E+00 0.00000000E+00
 INPUT CARD> 2  2-7.71489043E-02 0.00000000E+00 0.00000000E+00 9.73717494E-03 6.62450916E-04
 INPUT CARD> 2  3 6.62450916E-04-1.32490183E-03 0.00000000E+00 0.00000000E+00 0.00000000E+00
 INPUT CARD> 2  4-1.96090317E-01-1.96656153E-02-1.74855877E-02 3.02859263E-02 8.68214399E-03
 INPUT CARD> 2  5-1.96090317E-01-1.96656153E-02-1.74855877E-02-3.02859263E-02 8.68214399E-03
 INPUT CARD> 2  6-1.96090317E-01-1.96656153E-02 3.49711754E-02 0.00000000E+00 8.68214399E-03
 INPUT CARD> 3  1 0.00000000E+00 0.00000000E+00 0.00000000E+00 4.48608762E-01 0.00000000E+00
 INPUT CARD> 3  2 0.00000000E+00 2.18692520E-01 0.00000000E+00 0.00000000E+00 1.30198027E-02
 INPUT CARD> 3  3-1.30198027E-02 0.00000000E+00 0.00000000E+00 2.71832968E-02 0.00000000E+00
 INPUT CARD> 3  4-1.85332726E-01-7.03958951E-02 8.47929477E-03 1.95242443E-02 8.32835058E-03
 INPUT CARD> 3  5-1.85332726E-01-7.03958951E-02 8.47929477E-03-1.95242443E-02 8.32835058E-03
 INPUT CARD> 3  6 3.70665453E-01 1.40791790E-01-2.53376884E-02 0.00000000E+00-1.66567012E-02
 INPUT CARD> 4  1 0.00000000E+00 0.00000000E+00 0.00000000E+00 0.00000000E+00 4.48608762E-01
 INPUT CARD> 4  2 0.00000000E+00 0.00000000E+00 2.18692520E-01 0.00000000E+00 0.00000000E+00
 INPUT CARD> 4  3 0.00000000E+00 0.00000000E+00-1.50339731E-02 0.00000000E+00 2.71832968E-02
 INPUT CARD> 4  4 3.21005698E-01 1.21929267E-01 1.95242443E-02-1.40653607E-02-1.44251263E-02
  100000000 WORDS OF MEMORY AVAILABLE

     BASIS OPTIONS
     -------------
     GBASIS=CCD          IGAUSS=       0      POLAR=NONE    
     NDFUNC=       0     NFFUNC=       0     DIFFSP=       F
     NPFUNC=       0      DIFFS=       F     BASNAM=        


     RUN TITLE
     ---------
  NH3+ 3 states calculation at NH3 structure.                                    

 THE POINT GROUP OF THE MOLECULE IS C1      
 THE ORDER OF THE PRINCIPAL AXIS IS     0

 ATOM      ATOMIC                      COORDINATES (BOHR)
           CHARGE         X                   Y                   Z
 N           7.0     0.0470837929        0.0117709199       -0.3200826726
 H           1.0    -1.3364000210        1.2213876706        0.5412047447
 H           1.0    -1.1919770982       -1.2470444312        0.6276058194
 H           1.0     1.8741351965       -0.1379041750        0.2851018582

          INTERNUCLEAR DISTANCES (ANGS.)
          ------------------------------

                1 N          2 H          3 H          4 H     

   1 N       0.0000000    1.0739842 *  1.0607333 *  1.0215681 *
   2 H       1.0739842 *  0.0000000    1.3092705 *  1.8499116 *
   3 H       1.0607333 *  1.3092705 *  0.0000000    1.7349063 *
   4 H       1.0215681 *  1.8499116 *  1.7349063 *  0.0000000  

  * ... LESS THAN  3.000


     ATOMIC BASIS SET
     ----------------
 THE CONTRACTED PRIMITIVE FUNCTIONS HAVE BEEN UNNORMALIZED
 THE CONTRACTED BASIS FUNCTIONS ARE NOW NORMALIZED TO UNITY

  SHELL TYPE  PRIMITIVE        EXPONENT          CONTRACTION COEFFICIENT(S)

 N         

      1   S       1          9046.0000000    0.000699617413
      1   S       2          1357.0000000    0.005386054630
      1   S       3           309.3000000    0.027391021189
      1   S       4            87.7300000    0.103150591982
      1   S       5            28.5600000    0.278570663317
      1   S       6            10.2100000    0.448294849454
      1   S       7             3.8380000    0.278085928395
      1   S       8             0.7466000    0.015431561233

      2   S       9          9046.0000000   -0.000304990096
      2   S      10          1357.0000000   -0.002408026379
      2   S      11           309.3000000   -0.011944448725
      2   S      12            87.7300000   -0.048925992909
      2   S      13            28.5600000   -0.134472724725
      2   S      14            10.2100000   -0.315112577700
      2   S      15             3.8380000   -0.242857832550
      2   S      16             0.7466000    1.094382206854

      3   S      17             0.2248000    1.000000000000

      4   P      18            13.5500000    0.058905676772
      4   P      19             2.9170000    0.320461106714
      4   P      20             0.7973000    0.753042061792

      5   P      21             0.2185000    1.000000000000

      6   D      22             0.8170000    1.000000000000

 H         

      7   S      23            13.0100000    0.033498726390
      7   S      24             1.9620000    0.234800801174
      7   S      25             0.4446000    0.813682957883

      8   S      26             0.1220000    1.000000000000

      9   P      27             0.7270000    1.000000000000

 H         

     10   S      28            13.0100000    0.033498726390
     10   S      29             1.9620000    0.234800801174
     10   S      30             0.4446000    0.813682957883

     11   S      31             0.1220000    1.000000000000

     12   P      32             0.7270000    1.000000000000

 H         

     13   S      33            13.0100000    0.033498726390
     13   S      34             1.9620000    0.234800801174
     13   S      35             0.4446000    0.813682957883

     14   S      36             0.1220000    1.000000000000

     15   P      37             0.7270000    1.000000000000

 TOTAL NUMBER OF BASIS SET SHELLS             =   15
 NUMBER OF CARTESIAN GAUSSIAN BASIS FUNCTIONS =   30
 NOTE: THIS RUN WILL RESTRICT THE MO VARIATION SPACE TO SPHERICAL HARMONICS.
 THE NUMBER OF ORBITALS KEPT IN THE VARIATIONAL SPACE WILL BE PRINTED LATER.
 NUMBER OF ELECTRONS                          =    9
 CHARGE OF MOLECULE                           =    1
 SPIN MULTIPLICITY                            =    2
 NUMBER OF OCCUPIED ORBITALS (ALPHA)          =    5
 NUMBER OF OCCUPIED ORBITALS (BETA )          =    4
 TOTAL NUMBER OF ATOMS                        =    4
 THE NUCLEAR REPULSION ENERGY IS       11.5624995389

     $CONTRL OPTIONS
     ---------------
 SCFTYP=MCSCF        RUNTYP=ENERGY       EXETYP=RUN     
 MPLEVL=       2     CITYP =NONE         CCTYP =NONE         VBTYP =NONE    
 DFTTYP=NONE         TDDFT =NONE    
 MULT  =       2     ICHARG=       1     NZVAR =       0     COORD =UNIQUE  
 PP    =NONE         RELWFN=NONE         LOCAL =NONE         NUMGRD=       F
 ISPHER=       1     NOSYM =       1     MAXIT =     200     UNITS =ANGS    
 PLTORB=       F     MOLPLT=       F     AIMPAC=       F     FRIEND=        
 NPRINT=       7     IREST =       0     GEOM  =INPUT   
 NORMF =       0     NORMP =       0     ITOL  =      20     ICUT  =       9
 INTTYP=RYSQUAD      GRDTYP=BEST         QMTTOL= 1.0E-05

     $SYSTEM OPTIONS
     ---------------
  REPLICATED MEMORY=   100000000 WORDS (ON EVERY NODE).
 DISTRIBUTED MEMDDI=        1000 MILLION WORDS IN AGGREGATE,
 MEMDDI DISTRIBUTED OVER   1 PROCESSORS IS  1000000000 WORDS/PROCESSOR.
 TOTAL MEMORY REQUESTED ON EACH PROCESSOR=  1100000000 WORDS.
 TIMLIM=      525600.00 MINUTES, OR     365.0 DAYS.
 PARALL= T  BALTYP=  DLB     KDIAG=    3  COREFL= F
 MXSEQ2=     300 MXSEQ3=     150  mem10=         0

          ----------------
          PROPERTIES INPUT
          ----------------

     MOMENTS            FIELD           POTENTIAL          DENSITY
 IEMOM =       1   IEFLD =       0   IEPOT =       0   IEDEN =       0
 WHERE =COMASS     WHERE =NUCLEI     WHERE =NUCLEI     WHERE =NUCLEI  
 OUTPUT=BOTH       OUTPUT=BOTH       OUTPUT=BOTH       OUTPUT=BOTH    
 IEMINT=       0   IEFINT=       0                     IEDINT=       0
                                                       MORB  =       0

     -------------------------------
     INTEGRAL TRANSFORMATION OPTIONS
     -------------------------------
     NWORD  =            0
     CUTOFF = 1.0E-09     MPTRAN =       0
     DIRTRF =       T     AOINTS =DUP     

          ----------------------
          MCSCF INPUT PARAMETERS
          ----------------------
 CONVERGER SELECTION: FOCAS = F  SOSCF = F  FULLNR = T  QUD = F  JACOBI = F
 SECULAR EQUATION METHOD CISTEP = GMCCI   
 --- GENERAL INPUT OPTIONS:
 MAXIT =     100  MICIT =       1  ACURCY= 1.000E-06
 DAMP  =   0.000  CANONC=       T  ENGTOL= 1.000E-10
 EKT   =       F  NPUNCH=       2  NWORD =         0
 REGENERATE CI AFTER CONVERGENCE = NONE    
 DIABATIZATION AFTER CONVERGENCE =        F
 --- INPUT FOR FULLNR CONVERGER:
 METHOD=DM2       FORS  =       F  DROPC =       T
 LINSER=       F  FCORE =       F  NORB  =      30

          ----------------------
          INTEGRAL INPUT OPTIONS
          ----------------------
 NOPK  =       1 NORDER=       0 SCHWRZ=       T

 ------------------------------------------
 MULTIREFERENCE PERTURBATION THEORY CONTROL
 ------------------------------------------
 MRPT=GMCPT    READ CONVERGED MCSCF VECTORS= F


     ------------------------------------------
     THE POINT GROUP IS C1 , NAXIS= 1, ORDER= 1
     ------------------------------------------

 -- VARIATIONAL SPACE WILL BE RESTRICTED TO PURE SPHERICAL HARMONICS ONLY --
 AFTER EXCLUDING CONTAMINANT COMBINATIONS FROM THE CARTESIAN GAUSSIAN BASIS
 SET, THE NUMBER OF SPHERICAL HARMONICS KEPT IN THE VARIATION SPACE IS   29

     DIMENSIONS OF THE SYMMETRY SUBSPACES ARE
 A   =   29

 ..... DONE SETTING UP THE RUN .....
 CPU     0: STEP CPU TIME=     0.03 TOTAL CPU TIME=          0.0 (      0.0 MIN)
 TOTAL WALL CLOCK TIME=          0.1 SECONDS, CPU UTILIZATION IS    60.00%

          ********************
          1 ELECTRON INTEGRALS
          ********************
 TIME TO DO   DIPOLE INTEGRALS=      0.00
 ...... END OF ONE-ELECTRON INTEGRALS ......
 CPU     0: STEP CPU TIME=     0.01 TOTAL CPU TIME=          0.0 (      0.0 MIN)
 TOTAL WALL CLOCK TIME=          0.1 SECONDS, CPU UTILIZATION IS    80.00%

          -------------
          GUESS OPTIONS
          -------------
          GUESS =MOREAD            NORB  =      29          NORDER=       0
          MIX   =       F          PRTMO =       F          PUNMO =       F
          TOLZ  = 1.0E-08          TOLE  = 1.0E-05
          SYMDEN=       F          PURIFY=       T

 INITIAL GUESS ORBITALS GENERATED BY MOREAD   ROUTINE.

 STATISTICS FOR GENERATION OF SYMMETRY ORBITAL -Q- MATRIX
 NUMBER OF CARTESIAN ATOMIC ORBITALS=         30
 NUMBER OF SPHERICAL CONTAMINANTS DROPPED=     1
 NUMBER OF LINEARLY DEPENDENT MOS DROPPED=     0
 TOTAL NUMBER OF MOS IN VARIATION SPACE=      29
 ORBITAL PURIFICATION WILL OCCUR

 SYMMETRIES FOR INITIAL GUESS ORBITALS FOLLOW.   BOTH SET(S).
     5 ORBITALS ARE OCCUPIED (    1 CORE ORBITALS).
     1=A        2=A        3=A        4=A        5=A        6=A        7=A   
     8=A        9=A       10=A       11=A       12=A       13=A       14=A   
    15=A       16=A       17=A       18=A       19=A       20=A       21=A   
    22=A       23=A       24=A       25=A       26=A       27=A       28=A   
    29=A   
 ...... END OF INITIAL ORBITAL SELECTION ......
 CPU     0: STEP CPU TIME=     0.00 TOTAL CPU TIME=          0.0 (      0.0 MIN)
 TOTAL WALL CLOCK TIME=          0.1 SECONDS, CPU UTILIZATION IS    66.67%

                    ----------------------
                    AO INTEGRAL TECHNOLOGY
                    ----------------------
     S,P,L SHELL ROTATED AXIS INTEGRALS, REPROGRAMMED BY
        KAZUYA ISHIMURA (IMS) AND JOSE SIERRA (SYNSTAR).
     S,P,D,L SHELL ROTATED AXIS INTEGRALS PROGRAMMED BY
        KAZUYA ISHIMURA (INSTITUTE FOR MOLECULAR SCIENCE).
     S,P,D,F,G SHELL TO TOTAL QUARTET ANGULAR MOMENTUM SUM 5,
        ERIC PROGRAM BY GRAHAM FLETCHER (ELORET AND NASA ADVANCED
        SUPERCOMPUTING DIVISION, AMES RESEARCH CENTER).
     S,P,D,F,G,L SHELL GENERAL RYS QUADRATURE PROGRAMMED BY
        MICHEL DUPUIS (PACIFIC NORTHWEST NATIONAL LABORATORY).

          --------------------
          2 ELECTRON INTEGRALS
          --------------------

 DIRECT SCF METHOD SKIPS INTEGRAL STORAGE ON DISK.
 DIRECT TRANSFORMATION SKIPS AO INTEGRAL STORAGE ON DISK.
  ...... END OF TWO-ELECTRON INTEGRALS .....
 STEP CPU TIME =     0.02 TOTAL CPU TIME =          0.1 (      0.0 MIN)
 TOTAL WALL CLOCK TIME=          0.1 SECONDS, CPU UTILIZATION IS    75.00%
 DDI: Creating Array [0] - 900 x 36 = 32400 words.
 DDI: Creating Array [1] - 21 x 288 = 6048 words.
 DDI: Creating Array [2] - 36 x 36 = 1296 words.
 DDI: Creating Array [3] - 465 x 36 = 16740 words.

          -----------------
          MCSCF CALCULATION
          -----------------

 ----- NUCLEAR ENERGY ----- =        11.5624995389

     -------------------------------------------------
     GMC-PT/GMC-QDPT or general MCSCF input parameters
     -------------------------------------------------
 # of frozen core orbs. =         0 ->         0
 # of doubly occ. orbs. =         1
 # of active      orbs. =         7
 # of virtual     orbs. =        21
 # of active electrons  =         7
 # of states in CI      =         3
 Highest state in CI    =         3
 kstate =  1 1 1
 avecoe =  0.333 0.333 0.333
 State symmetry           = A           
 Assigned symmetry number = 1

 <<<Act. MO sym.: 1111111

 <<<Division of 1-ext.:  0
 <<<Division of 2-ext.:  0

 *** Reference space

 Reference type: ORMAS (= Occupation restricted multiple active space)
 # of orbitals          =  7
 # of minimum electrons =  7
 # of maximum electrons =  7
 State symmetry    =    1 (input)
 2*Sz              =    1 (input)
 Spin multiplicity =    2 (input)
 Dimension of reference space =      1225  (from      3432 walks)

 Dimension of reference space =      1225  (from      1225 walks)

 <<<Ionized spaces for Ref-CI:
      0:         1225 /   -1-0:         1960 /  0-1-0:         2891

 EVALUATING EXCHANGE INTEGRALS FOR DIRECT INTEGRAL TRANSFORMATION
 SCHWARZ INEQUALITY OVERHEAD:       465 INTEGRALS, T=        0.00

     --------------------------------------------
     PARTIAL TWO ELECTRON INTEGRAL TRANSFORMATION
     --------------------------------------------

 NUMBER OF CORE MOLECULAR ORBITALS     =    1
 NUMBER OF OCCUPIED MOLECULAR ORBITALS =    8
 TOTAL NUMBER OF MOLECULAR ORBITALS    =   29
 TOTAL NUMBER OF ATOMIC ORBITALS       =   30
 THRESHOLD FOR KEEPING TRANSFORMED 2E- INTEGRALS = 1.000E-09

 -------------------------------     ------------------------------
 DISTRIBUTED DATA TRANSFORMATION     PROGRAM WRITTEN BY G. FLETCHER
 -------------------------------     ------------------------------

 THE DISTRIBUTED MEMORY REQUIRED FOR THIS STEP IS MEMDDI=         1 MWORDS
 CREATING DISTRIBUTED STORAGE FOR [VIR OCC|VIR OCC] INTEGRALS
 CREATING DISTRIBUTED STORAGE FOR [VIR OCC|OCC OCC] INTEGRALS
 CREATING DISTRIBUTED STORAGE FOR [OCC OCC|OCC OCC] INTEGRALS
 CREATING DISTRIBUTED STORAGE FOR [VIR VIR|OCC OCC] INTEGRALS
 FOR    1 PROCESSORS, THE REPLICATED MEMORY NEEDED IS       73700 WORDS.
 SCHWARZ INEQUALITY OVERHEAD:       465 INTEGRALS, T=        0.00

      DIRECT 4-INDEX TRANSFORMATION 
      SCHWARZ INEQUALITY TEST SKIPPED          0 INTEGRAL BLOCKS
 ----- FROZEN CORE ENERGY =       -47.7512953075
 ... END OF INTEGRAL TRANSFORMATION ...
 CPU     0: STEP CPU TIME=     0.22 TOTAL CPU TIME=          0.3 (      0.0 MIN)
 TOTAL WALL CLOCK TIME=          0.3 SECONDS, CPU UTILIZATION IS    93.33%

     --------------------------------     -----------------------------
     MCHF NEWTON-RAPHSON OPTIMIZATION     CODE WRITTEN BY MICHEL DUPUIS
     --------------------------------     -----------------------------
     PARALLEL VERSION WRITTEN BY G. FLETCHER (ELORET)
     NASA ADVANCED SUPERCOMPUTING DIVISION, AMES RESEARCH CENTER

 NUMBER OF INDEPENDENT ORBITAL ROTATION PARAMETERS =   175
 ..... DONE SOLVING NEWTON-RAPHSON EQUATIONS .....
 CPU     0: STEP CPU TIME=     0.87 TOTAL CPU TIME=          1.1 (      0.0 MIN)
 TOTAL WALL CLOCK TIME=          1.2 SECONDS, CPU UTILIZATION IS    97.46%
 ..... DONE WITH NTN-RPH ORBITAL ROTATIONS ..... 
 CPU     0: STEP CPU TIME=     0.00 TOTAL CPU TIME=          1.1 (      0.0 MIN)
 TOTAL WALL CLOCK TIME=          1.2 SECONDS, CPU UTILIZATION IS    97.46%
 MAXIMUM MEMORY USED BY NTN-RPH CODE WAS     57645 WORDS.

 ITER     TOTAL ENERGY      DEL(E)  LAGRANGIAN ASYMMETRY   SQCDF  MICIT   DAMP
   1      -55.656224152 -0.656224152  0.139100   13    3 1.535E-01  1   0.0000
   2      -55.696825142 -0.040600990  0.023223   12    5 4.495E-01  1   0.0000
   3      -55.729938614 -0.033113471  0.012317   11    6 2.173E-01  1   0.0247
   4      -55.743864560 -0.013925947  0.004185   11    6 3.964E-02  1   0.0044
   5      -55.745593864 -0.001729304  0.000752   12    5 1.190E-03  1   0.0000
   6      -55.745645860 -0.000051996  0.000252   12    5 1.059E-04  1   0.0000
   7      -55.745651304 -0.000005444  0.000115   12    5 1.618E-05  1   0.0000
   8      -55.745652177 -0.000000873  0.000051   12    5 2.797E-06  1   0.0000
   9      -55.745652331 -0.000000154  0.000021   12    5 5.345E-07  1   0.0000
  10      -55.745652361 -0.000000030  0.000008   12    5 1.161E-07  1   0.0000
  11      -55.745652368 -0.000000007  0.000005   22    5 2.928E-08  1   0.0000
  12      -55.745652370 -0.000000002  0.000003   22    5 8.514E-09  1   0.0000
  13      -55.745652370 -0.000000001  0.000001   12    7 1.835E-09  1   0.0000
  14      -55.745652370 -0.000000000  0.000005   12    3 1.311E-09  1   0.0000
  15      -55.745652370 -0.000000000  0.000001   22    5 4.187E-10  1   0.0000

          --------------------
          LAGRANGIAN CONVERGED
          --------------------

 FINAL MCSCF ENERGY IS      -55.7456523704 AFTER  15 ITERATIONS

 -MCCI- BASED ON OPTIMIZED ORBITALS
 ----------------------------------

 PLEASE NOTE: IF THE ACTIVE ORBITALS ARE CANONICALIZED BELOW,
 THE FOLLOWING CI EXPANSION COEFFICIENTS AND THE DENSITY DO NOT
 CORRESPOND TO THE PRINTED ORBITALS.  THE PRINTED EXPANSIONS MATCH
 THE ORBITALS USED DURING THE LAST ITERATION.  IF YOU WISH TO SEE
 CI EXPANSIONS BASED ON THE CANONICAL (OR NATURAL) ORBITALS, YOU
 MUST RUN A CI CALCULATION WITH THAT ORBITAL CHOICE READ IN $VEC.

 Averaged energy =     -55.745652370

 State #    1  Energy =     -55.885104292  S =  0.500

      Det      Coef    Occupancy (Ignoring core)
      ---      ----    --------- --------- -----
        1   -0.947176  11110001110000
        5    0.063217  01111001110000
        8    0.136014  10110101110000
       17    0.120937  11010011110000
       36    0.058235  11110001101000
       71   -0.085606  11110001011000
      386   -0.113067  11110001010010
      701   -0.087672  11110001100001
      717   -0.073374  11010011100001

 State #    2  Energy =     -55.744003441  S =  0.500

      Det      Coef    Occupancy (Ignoring core)
      ---      ----    --------- --------- -----
        1    0.061640  11110001110000
       36    0.964432  11110001101000
       40   -0.059953  01111001101000
       43   -0.104306  10110101101000
       52   -0.066827  11010011101000
       71   -0.056656  11110001011000
      281    0.054528  11110000101100
      456    0.103321  11110001001010
      463    0.052592  10110101001010

 State #    3  Energy =     -55.607849378  S =  0.500

      Det      Coef    Occupancy (Ignoring core)
      ---      ----    --------- --------- -----
        1   -0.080196  11110001110000
       36    0.062750  11110001101000
       71    0.963608  11110001011000
       78   -0.070108  10110101011000
       87   -0.072225  11010011011000
      316    0.070061  11110000011100
      806   -0.089095  11110001001001
      822   -0.078298  11010011001001

 DENSITY MATRIX OVER ACTIVE MO-S

             1           2           3           4           5

    1    1.9780708
    2   -0.0072067   1.6358524
    3   -0.0045890  -0.0000191   1.6346236
    4    0.0028330  -0.0003834  -0.0008140   1.6554468
    5    0.0982263   0.0103439   0.0079484   0.0305398   0.0261121
    6    0.0080851  -0.1579025   0.0000769  -0.0149416  -0.0002489
    7    0.0010778  -0.0016571   0.1257659   0.0092235   0.0017119

             6           7

    6    0.0341303
    7   -0.0006360   0.0357640

 FORMING THE "STANDARD FOCK OPERATOR" IN DIRECT AO INTEGRAL MODE...
 ONLY THE    1 CORE AND   21 VIRTUAL ORBITALS WILL BE CANONICALIZED

          ----------------------
          MCSCF NATURAL ORBITALS
          ----------------------

                      1          2          3          4          5
                  -15.9868     1.9833     1.6565     1.6508     1.6444
                     A          A          A          A          A   
    1  N  1  S    1.001269   0.008307  -0.010628   0.002294   0.000863
    2  N  1  S   -0.001782   0.437316  -0.167773   0.085169   0.018816
    3  N  1  S   -0.006320   0.299854  -0.268179   0.115905   0.028256
    4  N  1  X    0.000121  -0.021939   0.156199   0.456838   0.023920
    5  N  1  Y   -0.000022  -0.009661   0.012594  -0.022633   0.527090
    6  N  1  Z    0.001168   0.094436   0.575573  -0.139177  -0.006303
    7  N  1  X   -0.000012   0.000352   0.081089   0.154326   0.013947
    8  N  1  Y   -0.000018   0.001351   0.014621  -0.006619   0.271254
    9  N  1  Z   -0.000482   0.009871   0.377006  -0.073466   0.003978
   10  N  1 XX    0.000431   0.001796  -0.010113   0.008808   0.002059
   11  N  1 YY   -0.000221  -0.002568  -0.013192  -0.002383  -0.001723
   12  N  1 ZZ   -0.000211   0.000772   0.023305  -0.006424  -0.000336
   13  N  1 XY   -0.000074  -0.000219  -0.000554  -0.001625  -0.013415
   14  N  1 XZ   -0.000079  -0.002128   0.005187   0.022881   0.001480
   15  N  1 YZ   -0.000041  -0.000174  -0.000479  -0.000374   0.025170
   16  H  2  S   -0.001824   0.187310   0.056184  -0.248427   0.291378
   17  H  2  S    0.000392   0.001986   0.021380  -0.031736   0.069515
   18  H  2  X   -0.000645   0.024912   0.009705  -0.006527   0.027505
   19  H  2  Y    0.000650  -0.023016  -0.007762   0.027982  -0.007549
   20  H  2  Z    0.000458  -0.009752   0.021749   0.006795  -0.014358
   21  H  3  S   -0.001869   0.199144   0.062493  -0.219907  -0.317327
   22  H  3  S    0.000342   0.005196   0.020009  -0.027699  -0.074402
   23  H  3  X   -0.000608   0.024181   0.010839   0.001068  -0.025213
   24  H  3  Y   -0.000675   0.024860   0.010500  -0.026421  -0.011275
   25  H  3  Z    0.000482  -0.012502   0.021237   0.006158   0.017197
   26  H  4  S   -0.002108   0.179012   0.190858   0.338087   0.004863
   27  H  4  S    0.000630  -0.000331   0.033516   0.034958   0.003526
   28  H  4  X    0.001107  -0.036437  -0.022524  -0.031877   0.002342
   29  H  4  Y   -0.000065   0.001832   0.002095   0.002946   0.019375
   30  H  4  Z    0.000401  -0.004321   0.015251  -0.019411  -0.000546

                      6          7          8
                    0.0261     0.0206     0.0182
                     A          A          A   
    1  N  1  S    0.043522   0.204345  -0.137870
    2  N  1  S    0.139232   0.679714  -0.409350
    3  N  1  S    0.000938   0.183522   0.011953
    4  N  1  X    0.068365  -0.387981  -0.860369
    5  N  1  Y    0.826180  -0.098577   0.140809
    6  N  1  Z    0.062811   0.632678  -0.192596
    7  N  1  X   -0.001468  -0.076404  -0.075818
    8  N  1  Y   -0.007231  -0.011665   0.012035
    9  N  1  Z   -0.013751  -0.070289   0.051264
   10  N  1 XX   -0.012356  -0.035518  -0.003828
   11  N  1 YY    0.011611   0.041581   0.009958
   12  N  1 ZZ    0.000746  -0.006064  -0.006130
   13  N  1 XY    0.035908  -0.000215  -0.008968
   14  N  1 XZ    0.001398   0.045680   0.040914
   15  N  1 YZ   -0.023797   0.008232  -0.010634
   16  H  2  S   -0.646732  -0.503037  -0.239934
   17  H  2  S   -0.151545  -0.061079  -0.064846
   18  H  2  X   -0.052205  -0.029485   0.007467
   19  H  2  Y    0.029288   0.062552   0.021193
   20  H  2  Z    0.011372  -0.019248  -0.003998
   21  H  3  S    0.581450  -0.634103  -0.067216
   22  H  3  S    0.150377  -0.090374  -0.020598
   23  H  3  X    0.036678  -0.031575   0.027596
   24  H  3  Y    0.021658  -0.071376  -0.012458
   25  H  3  Z   -0.017099  -0.011605  -0.003489
   26  H  4  S   -0.139675  -0.234439   0.866796
   27  H  4  S   -0.020151  -0.004050   0.143122
   28  H  4  X    0.012995   0.041711  -0.089081
   29  H  4  Y   -0.013291  -0.001163   0.004581
   30  H  4  Z    0.001621  -0.004776   0.013427

          ------------------------
          MCSCF OPTIMIZED ORBITALS
          ------------------------

                      1          2          3          4          5
                  -15.9868     0.0000     0.0000     0.0000     0.0000
                     A          A          A          A          A   
    1  N  1  S    1.001269  -0.003428  -0.008425  -0.000908  -0.015864
    2  N  1  S   -0.001782   0.401405   0.010403   0.004789  -0.194295
    3  N  1  S   -0.006320   0.295996   0.046159   0.019936  -0.287190
    4  N  1  X    0.000121  -0.004262   0.388719   0.010265   0.030809
    5  N  1  Y   -0.000022  -0.003369   0.001327   0.460463   0.006567
    6  N  1  Z    0.001168   0.052871   0.002827  -0.001141   0.581284
    7  N  1  X   -0.000012   0.006379   0.159968   0.009730   0.040300
    8  N  1  Y   -0.000018   0.005254   0.006188   0.270952   0.012623
    9  N  1  Z   -0.000482   0.009207   0.024603   0.008489   0.385192
   10  N  1 XX    0.000431   0.003869   0.004841   0.002558  -0.011427
   11  N  1 YY   -0.000221  -0.004502  -0.003600  -0.002507  -0.012739
   12  N  1 ZZ   -0.000211   0.000633  -0.001242  -0.000051   0.024166
   13  N  1 XY   -0.000074  -0.000794  -0.003228  -0.016028  -0.000405
   14  N  1 XZ   -0.000079  -0.003291   0.028426   0.000507  -0.000746
   15  N  1 YZ   -0.000041  -0.000211  -0.000309   0.027052  -0.000753
   16  H  2  S   -0.001824   0.210259  -0.251505   0.346729   0.123747
   17  H  2  S    0.000392   0.005188  -0.029765   0.082439   0.028956
   18  H  2  X   -0.000645   0.026884  -0.003293   0.031250   0.011952
   19  H  2  Y    0.000650  -0.025296   0.028731  -0.010412  -0.015456
   20  H  2  Z    0.000458  -0.009135   0.010697  -0.015221   0.019559
   21  H  3  S   -0.001869   0.214267  -0.238002  -0.357958   0.124157
   22  H  3  S    0.000342   0.006377  -0.029620  -0.085020   0.026874
   23  H  3  X   -0.000608   0.025348   0.003864  -0.028575   0.011370
   24  H  3  Y   -0.000675   0.027066  -0.026978  -0.012458   0.017779
   25  H  3  Z    0.000482  -0.011641   0.011438   0.018503   0.018926
   26  H  4  S   -0.002108   0.208565   0.444862  -0.004328   0.120156
   27  H  4  S    0.000630   0.002419   0.055454   0.002944   0.025999
   28  H  4  X    0.001107  -0.040152  -0.042716   0.003555  -0.016378
   29  H  4  Y   -0.000065   0.002340   0.004397   0.020187   0.001269
   30  H  4  Z    0.000401  -0.004531  -0.013774  -0.000038   0.019750

                      6          7          8          9         10
                    0.0000     0.0000     0.0000     0.1422     0.1970
                     A          A          A          A          A   
    1  N  1  S    0.241603   0.064222   0.003918  -0.137739   0.001746
    2  N  1  S    0.805410   0.167584   0.013747  -0.209492  -0.004880
    3  N  1  S    0.178313  -0.071972  -0.017123   1.409353  -0.115652
    4  N  1  X   -0.074609   0.985820   0.002816   0.027491   0.118436
    5  N  1  Y   -0.017831  -0.031694   0.881647   0.011450  -0.021487
    6  N  1  Z    0.677613  -0.019791  -0.026192  -0.198985  -0.015532
    7  N  1  X   -0.045315   0.112998  -0.001864  -0.156436  -0.756045
    8  N  1  Y   -0.013910  -0.007347   0.016842  -0.033863   0.046271
    9  N  1  Z   -0.076516  -0.020051   0.003130   0.458062   0.055537
   10  N  1 XX   -0.033808   0.014856  -0.008771   0.079632  -0.063969
   11  N  1 YY    0.036946  -0.022832   0.008011  -0.034236   0.045933
   12  N  1 ZZ   -0.003137   0.007976   0.000760  -0.045397   0.018035
   13  N  1 XY    0.007639   0.011172   0.033189  -0.010869   0.011567
   14  N  1 XZ    0.029896  -0.051026   0.001587  -0.044392  -0.108823
   15  N  1 YZ    0.007864   0.005281  -0.023640  -0.012086   0.003498
   16  H  2  S   -0.473659   0.317641  -0.587783   0.308345   0.202284
   17  H  2  S   -0.056973   0.066543  -0.144847  -0.889175  -0.782678
   18  H  2  X   -0.035767  -0.001770  -0.045043  -0.096534  -0.019476
   19  H  2  Y    0.054594  -0.035800   0.023976   0.020538   0.029920
   20  H  2  Z   -0.015249   0.012419   0.011720   0.040354   0.068609
   21  H  3  S   -0.480642   0.300914   0.607978   0.260060   0.240156
   22  H  3  S   -0.056544   0.059432   0.149456  -0.815859  -0.881609
   23  H  3  X   -0.031898  -0.012054   0.040949  -0.100162  -0.011724
   24  H  3  Y   -0.058400   0.034892   0.026692  -0.025506  -0.032636
   25  H  3  Z   -0.012256   0.007110  -0.014578   0.049353   0.061033
   26  H  4  S   -0.502697  -0.707117  -0.005338   0.320853  -0.531469
   27  H  4  S   -0.051679  -0.129715  -0.001393  -0.776295   1.898149
   28  H  4  X    0.067011   0.066980  -0.002478   0.101966  -0.108809
   29  H  4  Y   -0.004181  -0.004595  -0.010876  -0.003030   0.011822
   30  H  4  Z   -0.008515  -0.012083   0.003904  -0.012966  -0.079961

                     11         12         13         14         15
                    0.2165     0.5400     0.5649     0.6341     0.8138
                     A          A          A          A          A   
    1  N  1  S    0.010613  -0.069238   0.009123  -0.046245  -0.365453
    2  N  1  S    0.020913  -0.045744  -0.038145  -0.189038  -0.829632
    3  N  1  S   -0.073797   0.737030  -0.313497  -0.131404   1.505439
    4  N  1  X    0.020682  -0.294460   0.082194  -0.363333   0.070704
    5  N  1  Y   -0.014190  -0.295446  -0.575526   0.046802  -0.011232
    6  N  1  Z    0.015649  -0.525036   0.249647   0.371375   0.260403
    7  N  1  X   -0.063428   0.920250  -0.302833   1.783024  -0.268837
    8  N  1  Y    0.460749   0.644822   1.531383  -0.135005   0.054825
    9  N  1  Z   -0.045460   0.803105  -0.448718  -0.761245  -0.059067
   10  N  1 XX    0.002489  -0.039126   0.038164   0.022422  -0.069208
   11  N  1 YY   -0.001380   0.013320  -0.020268   0.000072   0.129038
   12  N  1 ZZ   -0.001109   0.025806  -0.017895  -0.022494  -0.059831
   13  N  1 XY   -0.095390  -0.011106   0.009030  -0.010373  -0.026542
   14  N  1 XZ   -0.002855   0.019803  -0.005198  -0.049118   0.062140
   15  N  1 YZ    0.072123   0.015211   0.016377   0.000211  -0.023643
   16  H  2  S    0.559103  -0.281420  -0.272497   0.695742  -0.004432
   17  H  2  S   -1.845014  -0.247672  -0.870492   0.336509  -0.348264
   18  H  2  X   -0.043611   0.058895  -0.138110   0.106412   0.090484
   19  H  2  Y    0.058655   0.086450  -0.011241  -0.122018   0.434850
   20  H  2  Z    0.030482   0.078866   0.038880   0.040528  -0.108707
   21  H  3  S   -0.562688  -0.015968   0.509582   0.609056   0.026481
   22  H  3  S    1.878595   0.539138   0.800267   0.270236  -0.275469
   23  H  3  X    0.047884   0.132119   0.022975   0.056715   0.167245
   24  H  3  Y    0.063156  -0.029722   0.088651   0.126897  -0.416258
   25  H  3  Z   -0.034828   0.002069  -0.098097   0.025341  -0.047351
   26  H  4  S    0.010632  -0.677094   0.349684  -0.359312  -0.047401
   27  H  4  S    0.024696  -0.538981   0.125122  -0.795413  -0.246968
   28  H  4  X   -0.014720   0.093182  -0.025815   0.186501  -0.001117
   29  H  4  Y   -0.046164   0.000246   0.093069  -0.031979  -0.063712
   30  H  4  Z   -0.006446   0.074677  -0.028614  -0.111029   0.208395

                     16         17         18         19         20
                    0.9764     1.0483     1.3170     1.3850     1.5045
                     A          A          A          A          A   
    1  N  1  S   -0.463340  -0.089812  -0.065634  -0.287347  -0.510173
    2  N  1  S   -0.979391  -0.188471  -0.136587  -0.603319  -1.051686
    3  N  1  S    1.964710   0.449233   0.247688   1.062380   1.964458
    4  N  1  X    0.068576  -0.005391  -0.114916  -0.075176   0.083695
    5  N  1  Y    0.010919   0.078541   0.132219  -0.031331  -0.028471
    6  N  1  Z    0.136306   0.024279  -0.011371  -0.021491  -0.030702
    7  N  1  X   -0.315778   0.028918   0.654039   0.905634  -0.669312
    8  N  1  Y   -0.064532  -0.423340  -0.344006   0.131553  -0.128381
    9  N  1  Z   -0.084519   0.126725   0.053472   0.369190   0.894700
   10  N  1 XX   -0.059494   0.017053   0.040479   0.056500   0.119818
   11  N  1 YY   -0.174719   0.014390  -0.012365   0.097118   0.058698
   12  N  1 ZZ    0.234213  -0.031443  -0.028115  -0.153618  -0.178515
   13  N  1 XY   -0.002399   0.194269   0.030780  -0.014748  -0.001376
   14  N  1 XZ    0.016300   0.015481   0.007458  -0.012371   0.019221
   15  N  1 YZ    0.010147   0.283837  -0.062184   0.003109   0.048962
   16  H  2  S   -0.385189   0.059578   0.308222  -0.100223  -0.704436
   17  H  2  S   -0.243617   0.062862   0.075095   0.014507  -0.136202
   18  H  2  X   -0.042023   0.161693  -0.628891  -0.194019   0.001983
   19  H  2  Y   -0.185981   0.032918  -0.160031  -0.195253  -0.066351
   20  H  2  Z    0.364336   0.343402  -0.377428  -0.314837  -0.264792
   21  H  3  S   -0.408483  -0.188850  -0.071212  -0.004692  -0.737495
   22  H  3  S   -0.259544  -0.162096   0.017677   0.008352  -0.267273
   23  H  3  X   -0.033966  -0.255594   0.271236  -0.571348   0.064095
   24  H  3  Y    0.209291  -0.092626  -0.008447   0.167015   0.000137
   25  H  3  Z    0.359076  -0.428788   0.014161  -0.473976   0.076806
   26  H  4  S   -0.171338  -0.099390  -0.370164  -0.665879  -0.278242
   27  H  4  S   -0.255810  -0.084458  -0.185032  -0.320674  -0.054551
   28  H  4  X   -0.022029   0.082733  -0.098238  -0.214087   0.173540
   29  H  4  Y    0.002473   0.513858   0.582677  -0.399987   0.118984
   30  H  4  Z    0.274825   0.015631   0.246710   0.240851  -0.831577

                     21         22         23         24         25
                    1.6194     1.8731     1.9308     2.0104     2.1017
                     A          A          A          A          A   
    1  N  1  S   -0.067457   0.003881  -0.034893   0.091236   0.050553
    2  N  1  S   -0.138349  -0.015760  -0.055565   0.311207   0.089645
    3  N  1  S    0.239886  -0.030361   0.281093   1.589579  -0.432913
    4  N  1  X    0.065612   0.648686  -0.091945  -0.072850  -0.185059
    5  N  1  Y    0.258240  -0.009707   0.264596  -0.052643   0.001453
    6  N  1  Z   -0.016200  -0.076822   0.017452   0.335610  -0.023165
    7  N  1  X   -0.251935   0.092449  -0.001612   0.016700  -0.142564
    8  N  1  Y    0.538350  -0.096048  -0.227771   0.107026  -0.028878
    9  N  1  Z    0.101973  -0.060096   0.124036   0.598344  -0.436718
   10  N  1 XX    0.013998  -0.195237   0.026265  -0.287079  -0.071717
   11  N  1 YY    0.059299   0.368795  -0.047213   0.192443   0.862761
   12  N  1 ZZ   -0.073297  -0.173558   0.020948   0.094636  -0.791044
   13  N  1 XY    0.057159   0.022406   0.251544   0.045290   0.032250
   14  N  1 XZ    0.004038  -0.161377   0.011967   0.116113   0.319694
   15  N  1 YZ   -0.260488   0.022264  -0.075850   0.157965   0.043738
   16  H  2  S   -0.141623  -0.004005  -0.064911  -0.391443   0.107584
   17  H  2  S   -0.374262   0.179700  -0.398847  -0.297253  -0.034748
   18  H  2  X   -0.406003   0.259392  -0.161787  -0.810629  -0.031230
   19  H  2  Y   -0.141180  -0.231778   0.985036   0.156950  -0.165540
   20  H  2  Z    0.591927  -0.306352  -0.027891   0.104667   0.433776
   21  H  3  S   -0.134458  -0.044212  -0.074245  -0.369956   0.108964
   22  H  3  S    0.318603   0.235539   0.303330  -0.239734  -0.060141
   23  H  3  X    0.499379   0.245917  -0.086704  -0.590467  -0.031606
   24  H  3  Y   -0.064224   0.461926   0.857126  -0.349557   0.241101
   25  H  3  Z   -0.557841  -0.163367   0.016456   0.266609   0.516986
   26  H  4  S    0.063589   0.041751  -0.071116  -0.387823   0.232537
   27  H  4  S    0.000038  -0.387039  -0.022621  -0.318285   0.226310
   28  H  4  X    0.068481   0.737671  -0.011679   0.805599  -0.386156
   29  H  4  Y   -0.387107   0.034058  -0.025695  -0.196740   0.075777
   30  H  4  Z   -0.150160   0.443448  -0.103502  -0.165089   0.057507

                     26         27         28         29
                    2.2877     2.6183     2.7423     2.9092
                     A          A          A          A   
    1  N  1  S    0.035481  -0.057615  -0.072491  -0.023936
    2  N  1  S    0.044531   0.029201  -0.182564  -0.092002
    3  N  1  S   -0.502599   2.001202  -0.554640  -0.554656
    4  N  1  X    0.028550  -0.183208  -0.557152  -0.272948
    5  N  1  Y    0.052436  -0.094299   0.228379  -0.420659
    6  N  1  Z   -0.060799   0.298492  -0.097559  -0.066913
    7  N  1  X    0.005177  -0.783774  -1.228360  -0.473580
    8  N  1  Y    0.530624  -0.183660   0.460061  -0.697533
    9  N  1  Z   -0.230236   0.461821   0.000290  -0.014483
   10  N  1 XX    0.212626   0.826982  -0.852419  -0.633677
   11  N  1 YY   -0.151566  -0.160208   0.540098   0.325867
   12  N  1 ZZ   -0.061060  -0.666773   0.312321   0.307810
   13  N  1 XY    0.584663   0.099872  -0.451262   1.194814
   14  N  1 XZ   -0.040076  -0.920459  -0.918345  -0.309151
   15  N  1 YZ    0.855449  -0.198888   0.413115  -0.656144
   16  H  2  S    0.005730  -0.827217  -0.812486   0.854505
   17  H  2  S   -0.102058  -0.205532  -0.345836   0.301632
   18  H  2  X   -0.176625  -0.204050  -0.529703   0.550217
   19  H  2  Y   -0.089359   0.442415   0.336985  -0.528706
   20  H  2  Z   -0.206885   0.342757   0.171156  -0.462002
   21  H  3  S    0.310611  -1.100898   0.062662  -0.999445
   22  H  3  S    0.237066  -0.375550   0.046238  -0.372244
   23  H  3  X    0.568475  -0.357658   0.111132  -0.595875
   24  H  3  Y   -0.027627  -0.605580   0.093654  -0.561656
   25  H  3  Z    0.186116   0.489833  -0.173459   0.422838
   26  H  4  S    0.147108  -0.310102   1.386658   0.789204
   27  H  4  S    0.051304  -0.015837   0.503481   0.243677
   28  H  4  X   -0.169878   0.241895  -1.034513  -0.594200
   29  H  4  Y   -0.659908   0.005549   0.156820  -0.070386
   30  H  4  Z    0.114765   0.453480  -0.322253  -0.290990
 .....DONE WITH MCSCF ITERATIONS.....
 CPU     0: STEP CPU TIME=     9.72 TOTAL CPU TIME=         10.9 (      0.2 MIN)
 TOTAL WALL CLOCK TIME=         10.9 SECONDS, CPU UTILIZATION IS    99.91%

     ----------------------------------------------------------------
     PROPERTY VALUES FOR THE MCSCF SELF-CONSISTENT FIELD WAVEFUNCTION
     ----------------------------------------------------------------

          -----------------
          ENERGY COMPONENTS
          -----------------

         WAVEFUNCTION NORMALIZATION =       1.0000000000

                ONE ELECTRON ENERGY =     -94.5544894828
                TWO ELECTRON ENERGY =      27.2463375735
           NUCLEAR REPULSION ENERGY =      11.5624995389
                                      ------------------
                       TOTAL ENERGY =     -55.7456523704

 ELECTRON-ELECTRON POTENTIAL ENERGY =      27.2463375735
  NUCLEUS-ELECTRON POTENTIAL ENERGY =    -150.4109319557
   NUCLEUS-NUCLEUS POTENTIAL ENERGY =      11.5624995389
                                      ------------------
             TOTAL POTENTIAL ENERGY =    -111.6020948433
               TOTAL KINETIC ENERGY =      55.8564424728
                 VIRIAL RATIO (V/T) =       1.9980165206

          ---------------------------------------
          MULLIKEN AND LOWDIN POPULATION ANALYSES
          ---------------------------------------

     ATOMIC MULLIKEN POPULATION IN EACH MOLECULAR ORBITAL

                      1          2          3          4          5

                  2.000000   1.983302   1.656490   1.650837   1.644442

    1             2.000924   1.320180   1.519540   0.917010   1.090086
    2            -0.000268   0.219320   0.015408   0.200151   0.254614
    3            -0.000296   0.247144   0.019021   0.156666   0.291724
    4            -0.000360   0.196657   0.102521   0.377010   0.008018

                      6          7          8

                  0.026058   0.020645   0.018227

    1             0.012543   0.011013   0.009597
    2             0.007449   0.003561   0.000566
    3             0.005740   0.005418   0.000034
    4             0.000327   0.000653   0.008030
 WARNING! MCSCF POPULATIONS SHOWN ABOVE ARE FOR THE NATURAL ORBITALS.
 IGNORE THE ABOVE DATA FOR MCSCF FUNCTIONS WHICH ARE NOT OF -FORS- TYPE.
 THE FOLLOWING POPULATIONS ARE CORRECT FOR ANY MCSCF WAVEFUNCTION.

               ----- POPULATIONS IN EACH AO -----
                             MULLIKEN      LOWDIN
              1  N  1  S      2.00262     1.89660
              2  N  1  S      0.82384     0.57618
              3  N  1  S      0.64552     0.39490
              4  N  1  X      0.65965     0.57559
              5  N  1  Y      0.72163     0.65920
              6  N  1  Z      0.87948     0.82306
              7  N  1  X      0.24022     0.37101
              8  N  1  Y      0.37039     0.43454
              9  N  1  Z      0.51972     0.55596
             10  N  1 XX      0.00052     0.18356
             11  N  1 YY      0.00143     0.15158
             12  N  1 ZZ      0.00361     0.14192
             13  N  1 XY      0.00684     0.01241
             14  N  1 XZ      0.00544     0.01413
             15  N  1 YZ      0.00000     0.00870
             16  H  2  S      0.60118     0.46362
             17  H  2  S      0.04290     0.14454
             18  H  2  X      0.02172     0.03850
             19  H  2  Y      0.02021     0.04085
             20  H  2  Z      0.01480     0.03596
             21  H  3  S      0.62149     0.47902
             22  H  3  S      0.04578     0.14354
             23  H  3  X      0.01985     0.03511
             24  H  3  Y      0.02170     0.04363
             25  H  3  Z      0.01663     0.03951
             26  H  4  S      0.60863     0.47429
             27  H  4  S      0.02662     0.14229
             28  H  4  X      0.03712     0.06324
             29  H  4  Y      0.00806     0.02154
             30  H  4  Z      0.01242     0.03500

          ----- MULLIKEN ATOMIC OVERLAP POPULATIONS -----
          (OFF-DIAGONAL ELEMENTS NEED TO BE MULTIPLIED BY 2)

             1           2           3           4

    1    5.9724611
    2    0.2922878   0.4233980
    3    0.2958838  -0.0091104   0.4439527
    4    0.3202598  -0.0057750  -0.0052743   0.3836447

          TOTAL MULLIKEN AND LOWDIN ATOMIC POPULATIONS
       ATOM         MULL.POP.    CHARGE          LOW.POP.     CHARGE
    1 N             6.880892    0.119108         6.799347    0.200653
    2 H             0.700800    0.299200         0.723476    0.276524
    3 H             0.725452    0.274548         0.740813    0.259187
    4 H             0.692855    0.307145         0.736365    0.263635

          MULLIKEN SPHERICAL HARMONIC POPULATIONS
       ATOM           S       P       D      F      G      H      I    TOTAL
    1 N             3.47    3.39    0.02   0.00   0.00   0.00   0.00    6.88
    2 H             0.64    0.06    0.00   0.00   0.00   0.00   0.00    0.70
    3 H             0.67    0.06    0.00   0.00   0.00   0.00   0.00    0.73
    4 H             0.64    0.06    0.00   0.00   0.00   0.00   0.00    0.69

          ---------------------
          ELECTROSTATIC MOMENTS
          ---------------------

 POINT   1           X           Y           Z (BOHR)    CHARGE
                -0.000003   -0.000001   -0.177185        1.00 (A.U.)
         DX          DY          DZ         /D/  (DEBYE)
    -0.440433   -0.105710    2.161184    2.208137
 ...... END OF PROPERTY EVALUATION ......
 CPU     0: STEP CPU TIME=     0.00 TOTAL CPU TIME=         10.9 (      0.2 MIN)
 TOTAL WALL CLOCK TIME=         10.9 SECONDS, CPU UTILIZATION IS    99.91%

     -------------------------------------------------
     GMC-PT/GMC-QDPT or general MCSCF input parameters
     -------------------------------------------------
 # of frozen core orbs. =         0 ->         0
 # of doubly occ. orbs. =         1
 # of active      orbs. =         7
 # of virtual     orbs. =        21
 # of active electrons  =         7
 # of states in CI      =         3
 Highest state in CI    =         3
 kstate =  1 1 1
 avecoe =  0.333 0.333 0.333
 State symmetry           = A           
 Assigned symmetry number = 1

 <<<Act. MO sym.: 1111111

 <<<Division of 1-ext.:  0
 <<<Division of 2-ext.:  0

     ------------------------
     Orbital canonicalization
     ------------------------

 MOs are canonicalized for core, virtual, and invariant-active orbital spaces.
 This is a part of the GMC-QDPT calculation.
 SCHWARZ INEQUALITY OVERHEAD:       465 INTEGRALS, T=        0.00
 DIRECT TRANSFORMATION SKIPS AO INTEGRAL STORAGE ON DISK.

 Averaged energy =     -55.745652370

 State #    1  Energy =     -55.885104292  S =  0.500
 State #    2  Energy =     -55.744003441  S =  0.500
 State #    3  Energy =     -55.607849378  S =  0.500

 Orbital energies for filled orbital space
  -15.986807
 Orbital energies for active orbital space
   -1.525354  -0.999385  -0.854823  -0.753379   0.355346
    0.420545   0.269663
 Orbital energies for external orbital space
    0.142191   0.197023   0.216540   0.539950   0.564863
    0.634060   0.813756   0.976400   1.048339   1.317031
    1.384987   1.504532   1.619420   1.873093   1.930849
    2.010415   2.101749   2.287697   2.618334   2.742290
    2.909165

 Zero values mean non-canonical orbitals.
 ... done with orbital canonicalization ...
 CPU     0: STEP CPU TIME=     0.62 TOTAL CPU TIME=         11.5 (      0.2 MIN)
 TOTAL WALL CLOCK TIME=         11.5 SECONDS, CPU UTILIZATION IS    99.83%

     --------------------------------------------
     PARTIAL TWO ELECTRON INTEGRAL TRANSFORMATION
     --------------------------------------------

 NUMBER OF CORE MOLECULAR ORBITALS     =    0
 NUMBER OF OCCUPIED MOLECULAR ORBITALS =    8
 TOTAL NUMBER OF MOLECULAR ORBITALS    =   29
 TOTAL NUMBER OF ATOMIC ORBITALS       =   30
 THRESHOLD FOR KEEPING TRANSFORMED 2E- INTEGRALS = 1.000E-09
 AO INTEGRALS WILL BE CALCULATED IN DIRECT MODE...
 DIRECT TRANSFORMATION SKIPS AO INTEGRAL STORAGE ON DISK.
 SCHWARZ INEQUALITY OVERHEAD:       465 INTEGRALS, T=        0.00

 PLAN A: REQUIREMENTS FOR FULLY IN-MEMORY TRANSFORMATION:
 # OF WORDS AVAILABLE =            100000000
 # OF WORDS NEEDED    =               221798

 PARALLEL ONLY WORKS WITH THE SEGMENTED ALGORITHM.
 ADJUSTING MEMORY TO USE SEGMENTED ALGORITHM.


 PLAN B: REQUIREMENTS FOR THE SEGMENTED TRANSFORMATION:
       MINIMUM=         124148 WORDS FOR 1 MOLECULAR ORBITAL PER PASS
       MAXIMUM=         221798 WORDS FOR ALL MOLECULAR ORBITALS IN 1 PASS
              (          13950 EXTRA WORDS INCLUDES 1 EXTRA ORBITAL/PASS)
 THIS RUN USES=         221798 WORDS,
 DISTRIBUTING   1 PASSES EACH CONTAINING     8 ORBITALS OVER   1 PROCESSORS.

 CHOOSING SEGMENTED PARTIAL TRANSFORMATION...
 DIRECT TRANSFORMATION SKIPS AO INTEGRAL STORAGE ON DISK.
 PASS #   1 TOOK        0.04 SECONDS.
 TOTAL NUMBER OF TRANSFORMED 2E- INTEGRALS KEPT =        29226
 ... END OF INTEGRAL TRANSFORMATION ...
 CPU     0: STEP CPU TIME=     0.05 TOTAL CPU TIME=         11.5 (      0.2 MIN)
 TOTAL WALL CLOCK TIME=         11.6 SECONDS, CPU UTILIZATION IS    99.83%

     --------     ------------------------------------------
     GMC-QDPT     Program written by H.Nakano (Kyushu Univ.)
     --------     ------------------------------------------

 *** Reference space

 Reference type: ORMAS (= Occupation restricted multiple active space)
 # of orbitals          =  7
 # of minimum electrons =  7
 # of maximum electrons =  7
 State symmetry    =    1 (input)
 2*Sz              =    1 (input)
 Spin multiplicity =    2 (input)
 Dimension of reference space =      1225  (from      3432 walks)

 Dimension of reference space =      1225  (from      1225 walks)

 <<<Ionized spaces for Ref-CI:
      0:         1225 /   -1-0:         1960 /  0-1-0:         2891

 ***                    ***
 *** Reference space CI ***
 ***                    ***

 Converged after   37 iterations

 Reference wavefunctions:

 State #    1  Energy =     -55.885104292  S =  0.500

      Det      Coef    Occupancy (Ignoring core)
      ---      ----    --------- --------- -----
        1    0.978429  11110001110000
      393    0.063261  10110101010010
      717    0.080138  11010011100001

 State #    2  Energy =     -55.744003441  S =  0.500

      Det      Coef    Occupancy (Ignoring core)
      ---      ----    --------- --------- -----
       36   -0.983908  11110001101000
      463   -0.062809  10110101001010

 State #    3  Energy =     -55.607849378  S =  0.500

      Det      Coef    Occupancy (Ignoring core)
      ---      ----    --------- --------- -----
       71   -0.980154  11110001011000
      822    0.080527  11010011001001

 Davidson method: CPU/Wall time =           0.48 /           0.48 sec.

 Oscillator strength (invalid if E(1)/=E(GS)):
 -----------------------------------------
   State                        f
 -----------------------------------------
     2     F(REF-CI)=        0.0003038796
     3     F(REF-CI)=        0.0018626570
 -----------------------------------------

 Dipole moment matrix elements, x, y, z, in A.U.

 Dimension of ionized spaces for PT:
 (N-2) space:         1715 /  (N-1) space:         2842 /  N space:         2891
 (N+1) space:         2842 /  (N+2) space:         1715

 <<<Ionized spaces for internal:
         0:         1225 /      -1-0:         1960 /     0-1-0:         2891
  -1-0-1-0:         2842 / 0-1-0-1-0:         3381

 Diagonal elements of averaged one-particle density matrix:
       2       3       4       5       6       7       8
  0.9939  0.9890  0.9867  0.9929  0.0114  0.0108  0.0154
  0.9894  0.6618  0.6576  0.6634  0.0093  0.0077  0.0108

 Orbital energies:
 -------- Doubly-occupied orbitals (highest several orbs.) -------
             1
 -1.598681D+01
 -------- Active orbitals ----------------------------------------
             2            3            4            5            6
 -1.525354D+00-9.993845D-01-8.548232D-01-7.533791D-01 3.553465D-01
             7            8
  4.205453D-01 2.696628D-01
 -------- External orbitals (lowest several orbs.) ---------------
             9           10           11           12           13
  1.421911D-01 1.970235D-01 2.165403D-01 5.399503D-01 5.648626D-01
            14           15           16           17           18
  6.340601D-01 8.137557D-01 9.763996D-01 1.048339D+00 1.317031D+00

 *** Quasi-degeneracy checking

 === Det (|Ci| > 1.0D-01 and dE < 5.0D-03)

 # of small denominators (single excitations)
 State       dEmin  dE < 5.0D-03  dE < 5.0D-04  dE < 5.0D-05  dE < 5.0D-06
 ----- ----------- ------------- ------------- ------------- -------------
     1    5.00D-03             0             0             0             0
     2    5.00D-03             0             0             0             0
     3    5.00D-03             0             0             0             0

 # of small denominators (double excitations)
 State       dEmin  dE < 5.0D-03  dE < 5.0D-04  dE < 5.0D-05  dE < 5.0D-06
 ----- ----------- ------------- ------------- ------------- -------------
     1    5.00D-03             0             0             0             0
     2    5.00D-03             0             0             0             0
     3    5.00D-03             0             0             0             0

 *** Zeroth-Order Setup (Granovsky's zeroth-order vectors)
 Zeroth-order effective Hamiltonian
  (= Sum_i e(i)*<I|a+(i)a(i)|J> ):
                   1            2            3
     1 -7.410050D+00
     2 -3.978944D-03-7.331500D+00
     3  2.247337D-03-1.180903D-03-7.176777D+00

 Zeroth-order vectors:
 State #    1
       MC st            1           2           3
       Coeff    9.987D-01   5.031D-02  -9.358D-03
 State #    2
       MC st            2           1           3
       Coeff    9.987D-01  -5.023D-02   8.362D-03
 State #    3
       MC st            3           1           2
       Coeff    9.999D-01   9.766D-03  -7.881D-03

 *** GMC-QDPT computation

 (Integral reading:  CPU/Wall time =           0.00 /           0.01 sec.)

 One-external:
   0 -ionized terms: CPU/Wall time =           0.03 /           0.02 sec.
 (-1)-ionized terms: CPU/Wall time =           0.08 /           0.09 sec.
 (+1)-ionized terms: CPU/Wall time =           0.03 /           0.03 sec.
 (+1)-ionized terms: CPU/Wall time =           0.00 /           0.00 sec.
 (+2)-ionized terms: CPU/Wall time =           0.00 /           0.00 sec.

 Internal:
 # of macro loops for internal contribution =         1 (input)
 Loop:    1
 Dimension of internal CISD space     =         0  (after screening)
 Space construction: CPU/Wall time =           0.02 /           0.02 sec.
 Internal terms:     CPU/Wall time =           0.00 /           0.00 sec.

 Two-external:
   0 -ionized terms: CPU/Wall time =           0.06 /           0.06 sec.
 (-1)-ionized terms: CPU/Wall time =           0.99 /           0.99 sec.
 (-2)-ionized terms: CPU/Wall time =           0.17 /           0.17 sec.

 Total time:         CPU/Wall time =           1.38 /           1.38 sec.

 ***                  ***
 *** GMC-QDPT Results ***
 ***                  ***

 Diagonal elements of effective Hamiltonian:
 Heff(  1) =   -55.98277515
 Heff(  2) =   -55.85289866
 Heff(  3) =   -55.71909784

 Off-diagonal elements of effective Hamiltonian:
                   1            2
     2  6.284598D-03
     3 -2.249468D-03 1.115237D-03

 ******** GMC-QDPT energies ********
 ----------------------------------------------------------------------------
   State                        1st order                           2nd order
 ----------------------------------------------------------------------------
     1     E(REF-CI)=      -55.8851042923   E(GMC-QDPT2)=      -55.9830985959
     2     E(REF-CI)=      -55.7440034414   E(GMC-QDPT2)=      -55.8526028342
     3     E(REF-CI)=      -55.6078493777   E(GMC-QDPT2)=      -55.7190702199
 ----------------------------------------------------------------------------

 Excitation energies (invalid if E(1)/=E(GS)):
 ----------------------------------------------------------------------------
   State                        1st order                           2nd order
 ----------------------------------------------------------------------------

     TZ Sorted GMC-PT ENERGIES:
         1      -55.9830985959
         2      -55.8526028342
         3      -55.7190702199
     2     E(REF-CI)=        3.8395517 eV   E(GMC-QDPT2)=        3.5509724 eV
     3     E(REF-CI)=        7.5444944 eV   E(GMC-QDPT2)=        7.1845818 eV
 ----------------------------------------------------------------------------

 Main characters of perturbed GMC-QDPT states:

 State #    1  Energy =     -55.983098596  S =  0.500

      Det      Coef    Occupancy (Ignoring core)
      ---      ----    --------- --------- -----
        1    0.978473  11110001110000
      393    0.063246  10110101010010
      717    0.080123  11010011100001

 State #    2  Energy =     -55.852602834  S =  0.500

      Det      Coef    Occupancy (Ignoring core)
      ---      ----    --------- --------- -----
       36   -0.983950  11110001101000
      463   -0.062810  10110101001010

 State #    3  Energy =     -55.719070220  S =  0.500

      Det      Coef    Occupancy (Ignoring core)
      ---      ----    --------- --------- -----
       71   -0.980158  11110001011000
      822    0.080530  11010011001001

 <<<Max |V/de| = 2.259D-02  Thresh = 1.000D+00

 Oscillator strength (invalid if E(1)/=E(GS)):
 ----------------------------------------------------------------------------
   State                        1st order                           2nd order
 ----------------------------------------------------------------------------
     2     F(REF-CI)=        0.0003038796     F(GMC-PT2)=        0.0002894205
     3     F(REF-CI)=        0.0018626570     F(GMC-PT2)=        0.0017976154
 ----------------------------------------------------------------------------

 Dipole moment matrix elements, x, y, z, in A.U.
States    1    1       -0.2211766786       -0.0468055955        0.7521685429
States    1    2        0.0102269239        0.0386344047       -0.0415881340
States    1    3        0.0809665027       -0.0112004739        0.0594272756
States    2    1        0.0102269239        0.0386344047       -0.0415881340
States    2    2        0.0013449088       -0.0667210053        0.2610713735
States    2    3        0.0480632334       -0.1757435509        0.0008999814
States    3    1        0.0809665027       -0.0112004739        0.0594272756
States    3    2        0.0480632334       -0.1757435509        0.0008999814
States    3    3       -0.5168755896       -0.0758316467        0.2480940657

 Oscillator strength (valid only when positive): 
 ----------------------------------------------------------------------------
  States                        1st order                           2nd order
 ----------------------------------------------------------------------------
  1  1     F(REF-CI)=        0.0000000000     F(GMC-PT2)=        0.0000000000
  1  2     F(REF-CI)=       -0.0003038796     F(GMC-PT2)=       -0.0002894205
  1  3     F(REF-CI)=       -0.0018626570     F(GMC-PT2)=       -0.0017976154
  2  1     F(REF-CI)=        0.0003038796     F(GMC-PT2)=        0.0002894205
  2  2     F(REF-CI)=        0.0000000000     F(GMC-PT2)=        0.0000000000
  2  3     F(REF-CI)=       -0.0030180982     F(GMC-PT2)=       -0.0029552263
  3  1     F(REF-CI)=        0.0018626570     F(GMC-PT2)=        0.0017976154
  3  2     F(REF-CI)=        0.0030180982     F(GMC-PT2)=        0.0029552263
  3  3     F(REF-CI)=        0.0000000000     F(GMC-PT2)=        0.0000000000
 CPU     0: STEP CPU TIME=     1.93 TOTAL CPU TIME=         13.5 (      0.2 MIN)
 TOTAL WALL CLOCK TIME=         13.5 SECONDS, CPU UTILIZATION IS    99.85%

     !!! DIABATIZATION FOR REF CI STATES !!!

 *******************************************************
          $DMO GROUP FOUND IN THE INPUT.
        DIABATIZATION OF ADIABATIC STATES BEGINS.
     PROGRAMMED BY TAO ZENG (CARLETON UNIVERSITY).
               Email: toby.zeng@carleton.ca
     See T. Zeng, J. Chem. Phys. 2017, 146, 144103
 *******************************************************

 *************************************************************************
     STEP 1: TRANSFORMATION OF ADIABATIC STATES TO THE DMO REPRESENTATION
         See Atchity and Ruedenberg, J. Chem. Phys. 1999, 111, 2910
 *************************************************************************

Read in Diabatic Molecualr Orbitals:

                      1          2          3          4          5

    1  N  1  S    0.008609   0.000000   0.000000  -0.013219   0.279491
    2  N  1  S    0.442914  -0.000000   0.000000  -0.184329   0.867803
    3  N  1  S    0.276913   0.000000  -0.000000  -0.288315   0.144236
    4  N  1  X   -0.000000   0.493155  -0.024636  -0.000000  -0.000000
    5  N  1  Y    0.000000   0.024636   0.493155  -0.000000   0.000000
    6  N  1  Z    0.090197   0.000000   0.000000   0.593421   0.705309
    7  N  1  X   -0.000000   0.210628  -0.010522   0.000000   0.000000
    8  N  1  Y    0.000000   0.010522   0.210628  -0.000000  -0.000000
    9  N  1  Z   -0.004381   0.000000   0.000000   0.381592  -0.106092
   10  N  1 XX   -0.000457   0.010719  -0.000535  -0.012387   0.006153
   11  N  1 YY   -0.000457  -0.010719   0.000535  -0.012387   0.006153
   12  N  1 ZZ    0.000914  -0.000000   0.000000   0.024773  -0.012306
   13  N  1 XY    0.000000  -0.000618  -0.012377  -0.000000   0.000000
   14  N  1 XZ   -0.000000   0.026529  -0.001325  -0.000000   0.000000
   15  N  1 YZ    0.000000   0.001325   0.026529  -0.000000   0.000000
   16  H  2  S    0.194462  -0.176074   0.343485   0.112865  -0.523343
   17  H  2  S    0.003574  -0.023812   0.046452   0.024014  -0.054445
   18  H  2  X    0.018760   0.009101   0.022834   0.009336  -0.039151
   19  H  2  Y   -0.032493   0.022287  -0.020044  -0.016171   0.067811
   20  H  2  Z   -0.009251   0.008464  -0.016511   0.018769  -0.010566
   21  H  3  S    0.194462  -0.209430  -0.324227   0.112865  -0.523343
   22  H  3  S    0.003574  -0.028322  -0.043847   0.024014  -0.054445
   23  H  3  X    0.018760   0.006781  -0.023627   0.009336  -0.039151
   24  H  3  Y    0.032493  -0.024174  -0.017723   0.016171  -0.067811
   25  H  3  Z   -0.009251   0.010067   0.015585   0.018769  -0.010566
   26  H  4  S    0.194462   0.385503  -0.019258   0.112865  -0.523343
   27  H  4  S    0.003574   0.052134  -0.002604   0.024014  -0.054445
   28  H  4  X   -0.037519  -0.032295   0.001613  -0.018672   0.078302
   29  H  4  Y    0.000000   0.001067   0.021353  -0.000000   0.000000
   30  H  4  Z   -0.009251  -0.018530   0.000926   0.018769  -0.010566

                      6          7

    1  N  1  S    0.000000  -0.000000
    2  N  1  S    0.000000  -0.000000
    3  N  1  S   -0.000000   0.000000
    4  N  1  X   -0.930415  -0.002083
    5  N  1  Y   -0.002083   0.930415
    6  N  1  Z   -0.000000   0.000000
    7  N  1  X   -0.046866  -0.000105
    8  N  1  Y   -0.000105   0.046866
    9  N  1  Z   -0.000000   0.000000
   10  N  1 XX    0.001538   0.000003
   11  N  1 YY   -0.001538  -0.000003
   12  N  1 ZZ   -0.000000   0.000000
   13  N  1 XY   -0.000004   0.001776
   14  N  1 XZ    0.039985   0.000090
   15  N  1 YZ    0.000090  -0.039985
   16  H  2  S   -0.362630  -0.631354
   17  H  2  S   -0.065964  -0.114846
   18  H  2  X    0.002763  -0.037520
   19  H  2  Y    0.037435   0.040736
   20  H  2  Z    0.001882   0.003276
   21  H  3  S   -0.365454   0.629724
   22  H  3  S   -0.066477   0.114549
   23  H  3  X    0.002595   0.037532
   24  H  3  Y   -0.037617   0.040567
   25  H  3  Z    0.001896  -0.003268
   26  H  4  S    0.728084   0.001630
   27  H  4  S    0.132441   0.000297
   28  H  4  X   -0.062317  -0.000140
   29  H  4  Y    0.000055  -0.024345
   30  H  4  Z   -0.003778  -0.000008

NUMBER OF SUB ACTIVE SPACES:   1
ROTATE ACTIVE MOS TO DMOS IN EACH SUB-SPACE

SPACE  1:

OVERLAP BETWEEN ORTHONORMAL AND PRE-ORTHONORMAL REF. DMOS

             1           2           3           4           5

    1    0.9920697  -0.0145667  -0.0058986  -0.0028647  -0.0009101
    2   -0.0145667   1.0350923  -0.0144442  -0.0250914   0.0536377
    3   -0.0058986  -0.0144442   0.9348054  -0.0062743   0.0083218
    4   -0.0028647  -0.0250914  -0.0062743   0.9977517  -0.0036663
    5   -0.0009101   0.0536377   0.0083218  -0.0036663   1.0558025
    6    0.0039112   0.0389767  -0.0110236  -0.0333139   0.0261980
    7   -0.0004391   0.0083714   0.0507840   0.0063574   0.0111040

             6           7

    1    0.0039112  -0.0004391
    2    0.0389767   0.0083714
    3   -0.0110236   0.0507840
    4   -0.0333139   0.0063574
    5    0.0261980   0.0111040
    6    1.0023949  -0.0057010
    7   -0.0057010   1.0342879
REFERENCE DMOS AFTER ORTHONORMALIZATION:

                      1          2          3          4          5

    1  N  1  S    0.008694  -0.013706  -0.002549  -0.012823   0.265597
    2  N  1  S    0.446168  -0.039848  -0.006310  -0.182363   0.824529
    3  N  1  S    0.278322  -0.009663  -0.001737  -0.288384   0.136695
    4  N  1  X    0.011020   0.511655  -0.029145  -0.018919  -0.002167
    5  N  1  Y    0.003548   0.023891   0.480556  -0.001749  -0.014405
    6  N  1  Z    0.092958  -0.019025  -0.001067   0.597162   0.671206
    7  N  1  X    0.003190   0.206026  -0.008507   0.003293  -0.009016
    8  N  1  Y    0.001532   0.013136   0.223730   0.001585  -0.002838
    9  N  1  Z   -0.003233   0.013940   0.003915   0.382955  -0.100249
   10  N  1 XX   -0.000353   0.009753  -0.000544  -0.012134   0.005280
   11  N  1 YY   -0.000644  -0.010937   0.000234  -0.012723   0.006378
   12  N  1 ZZ    0.000997   0.001185   0.000310   0.024857  -0.011658
   13  N  1 XY   -0.000090  -0.000810  -0.013386  -0.000123   0.000124
   14  N  1 XZ    0.000203   0.024313  -0.000556   0.001904  -0.002195
   15  N  1 YZ    0.000195   0.002038   0.030599   0.000505   0.000077
   16  H  2  S    0.197625  -0.116541   0.401847   0.104128  -0.477341
   17  H  2  S    0.003920  -0.015825   0.055478   0.022465  -0.048355
   18  H  2  X    0.019209   0.011798   0.027203   0.010101  -0.037541
   19  H  2  Y   -0.032771   0.015519  -0.023828  -0.014928   0.062264
   20  H  2  Z   -0.009264   0.008677  -0.017556   0.018906  -0.010352
   21  H  3  S    0.192703  -0.169975  -0.381734   0.089725  -0.481675
   22  H  3  S    0.003252  -0.023543  -0.053593   0.020126  -0.049498
   23  H  3  X    0.018867   0.008187  -0.026651   0.009183  -0.037723
   24  H  3  Y    0.032493  -0.018624  -0.021018   0.014047  -0.062604
   25  H  3  Z   -0.009030   0.010793   0.017258   0.019239  -0.010655
   26  H  4  S    0.198640   0.378820   0.000424   0.145577  -0.532437
   27  H  4  S    0.003835   0.049102   0.000213   0.029529  -0.057261
   28  H  4  X   -0.038062  -0.033878  -0.000570  -0.021508   0.077365
   29  H  4  Y    0.000157   0.001575   0.024216   0.000354  -0.000013
   30  H  4  Z   -0.009517  -0.017031   0.000841   0.018254  -0.009040

                      6          7

    1  N  1  S   -0.006911  -0.002571
    2  N  1  S   -0.027911  -0.007063
    3  N  1  S   -0.013883   0.000510
    4  N  1  X   -0.949079  -0.009812
    5  N  1  Y    0.007564   0.875990
    6  N  1  Z    0.002609  -0.010616
    7  N  1  X   -0.054535  -0.001574
    8  N  1  Y    0.002161   0.034254
    9  N  1  Z    0.014852  -0.001502
   10  N  1 XX    0.000609  -0.000028
   11  N  1 YY   -0.001693   0.000074
   12  N  1 ZZ    0.001084  -0.000046
   13  N  1 XY   -0.000113   0.002379
   14  N  1 XZ    0.039059   0.000144
   15  N  1 YZ    0.000132  -0.040182
   16  H  2  S   -0.341211  -0.626524
   17  H  2  S   -0.063232  -0.113600
   18  H  2  X    0.003627  -0.037338
   19  H  2  Y    0.034712   0.040030
   20  H  2  Z    0.002304   0.003963
   21  H  3  S   -0.343758   0.631774
   22  H  3  S   -0.063396   0.113633
   23  H  3  X    0.003411   0.037905
   24  H  3  Y   -0.034825   0.040813
   25  H  3  Z    0.002592  -0.004088
   26  H  4  S    0.729640   0.007417
   27  H  4  S    0.132687   0.001045
   28  H  4  X   -0.063450  -0.000897
   29  H  4  Y    0.000130  -0.024741
   30  H  4  Z   -0.002217   0.000057

 -------------------------------------------
       MAXIMIZING MORMO OVERLAP TERM        
 -------------------------------------------
   SWEEP    VALUE       PROGRESS
     0     6.60202
     1     6.98193     0.37990572
     2     6.98270     0.00076696
     3     6.98270     0.00000000
     4     6.98270    -0.00000000
     5     6.98270     0.00000000
     6     6.98270     0.00000000
 THE ROTATION IS DONE
ACTIVE ORBITALS AFTER MORMO:

                      1          2          3          4          5

    1  N  1  S    0.007940  -0.017618  -0.004302  -0.012531   0.244083
    2  N  1  S    0.437866  -0.036137  -0.011223  -0.185295   0.797038
    3  N  1  S    0.301614   0.012861   0.013040  -0.282695   0.168418
    4  N  1  X    0.008172   0.510759  -0.030708  -0.023548   0.006278
    5  N  1  Y    0.000016   0.020185   0.458069  -0.006353  -0.010455
    6  N  1  Z    0.088150  -0.028960  -0.004247   0.597605   0.658672
    7  N  1  X    0.008287   0.176627  -0.001198   0.030276  -0.029763
    8  N  1  Y    0.006697   0.022585   0.270339   0.009751  -0.010244
    9  N  1  Z    0.009047   0.039293   0.010853   0.382781  -0.084061
   10  N  1 XX    0.002457   0.008724   0.002258  -0.012962  -0.032411
   11  N  1 YY   -0.003196  -0.009409  -0.002325  -0.010753   0.035676
   12  N  1 ZZ    0.000739   0.000685   0.000066   0.023715  -0.003265
   13  N  1 XY   -0.000464  -0.003550  -0.016184  -0.000843   0.007928
   14  N  1 XZ   -0.001963   0.019852  -0.000500   0.001562   0.028714
   15  N  1 YZ    0.000350   0.001566   0.026886  -0.000767   0.008493
   16  H  2  S    0.190178  -0.151438   0.360986   0.105486  -0.476805
   17  H  2  S    0.003383  -0.010596   0.083896   0.026092  -0.054584
   18  H  2  X    0.025411   0.001166   0.031841   0.011198  -0.037030
   19  H  2  Y   -0.022832   0.019360  -0.012007  -0.013158   0.055410
   20  H  2  Z   -0.009469   0.012862  -0.015742   0.018440  -0.013981
   21  H  3  S    0.190430  -0.190436  -0.345728   0.099368  -0.492037
   22  H  3  S    0.003693  -0.023558  -0.083868   0.022610  -0.056437
   23  H  3  X    0.023748   0.002524  -0.028342   0.010606  -0.033963
   24  H  3  Y    0.024365  -0.019163  -0.010985   0.015018  -0.059504
   25  H  3  Z   -0.011673   0.014964   0.018016   0.018101  -0.010683
   26  H  4  S    0.186573   0.388318  -0.012014   0.126522  -0.526243
   27  H  4  S   -0.000076   0.043476   0.002873   0.029037  -0.056145
   28  H  4  X   -0.037190  -0.038338   0.004192  -0.016311   0.070210
   29  H  4  Y    0.002312   0.005363   0.020042   0.001179  -0.004012
   30  H  4  Z   -0.005083  -0.013852   0.001254   0.020357  -0.010201

                      6          7

    1  N  1  S   -0.052127   0.002082
    2  N  1  S   -0.114699   0.006851
    3  N  1  S    0.099701  -0.018990
    4  N  1  X   -0.931117  -0.011579
    5  N  1  Y    0.008668   0.883316
    6  N  1  Z    0.029786  -0.020917
    7  N  1  X   -0.095397  -0.002026
    8  N  1  Y    0.003643   0.017887
    9  N  1  Z    0.002951   0.007881
   10  N  1 XX   -0.015110  -0.009063
   11  N  1 YY    0.024339   0.008206
   12  N  1 ZZ   -0.009229   0.000857
   13  N  1 XY   -0.011535   0.032886
   14  N  1 XZ    0.055561   0.002737
   15  N  1 YZ   -0.004688  -0.023685
   16  H  2  S   -0.366250  -0.593055
   17  H  2  S   -0.071762  -0.145705
   18  H  2  X   -0.000262  -0.044796
   19  H  2  Y    0.041937   0.024645
   20  H  2  Z   -0.012609   0.011782
   21  H  3  S   -0.363460   0.600977
   22  H  3  S   -0.068383   0.148189
   23  H  3  X    0.010042   0.041261
   24  H  3  Y   -0.041806   0.026011
   25  H  3  Z   -0.006964  -0.014323
   26  H  4  S    0.727829   0.013594
   27  H  4  S    0.131783   0.001876
   28  H  4  X   -0.067941  -0.004326
   29  H  4  Y    0.004850  -0.010678
   30  H  4  Z    0.008855   0.004231

Actually Used Diabatic Molecualr Orbitals:

                      1          2          3          4          5

    1  N  1  S    0.007940  -0.017618  -0.004302  -0.012531   0.244083
    2  N  1  S    0.437866  -0.036137  -0.011223  -0.185295   0.797038
    3  N  1  S    0.301614   0.012861   0.013040  -0.282695   0.168418
    4  N  1  X    0.008172   0.510759  -0.030708  -0.023548   0.006278
    5  N  1  Y    0.000016   0.020185   0.458069  -0.006353  -0.010455
    6  N  1  Z    0.088150  -0.028960  -0.004247   0.597605   0.658672
    7  N  1  X    0.008287   0.176627  -0.001198   0.030276  -0.029763
    8  N  1  Y    0.006697   0.022585   0.270339   0.009751  -0.010244
    9  N  1  Z    0.009047   0.039293   0.010853   0.382781  -0.084061
   10  N  1 XX    0.002457   0.008724   0.002258  -0.012962  -0.032411
   11  N  1 YY   -0.003196  -0.009409  -0.002325  -0.010753   0.035676
   12  N  1 ZZ    0.000739   0.000685   0.000066   0.023715  -0.003265
   13  N  1 XY   -0.000464  -0.003550  -0.016184  -0.000843   0.007928
   14  N  1 XZ   -0.001963   0.019852  -0.000500   0.001562   0.028714
   15  N  1 YZ    0.000350   0.001566   0.026886  -0.000767   0.008493
   16  H  2  S    0.190178  -0.151438   0.360986   0.105486  -0.476805
   17  H  2  S    0.003383  -0.010596   0.083896   0.026092  -0.054584
   18  H  2  X    0.025411   0.001166   0.031841   0.011198  -0.037030
   19  H  2  Y   -0.022832   0.019360  -0.012007  -0.013158   0.055410
   20  H  2  Z   -0.009469   0.012862  -0.015742   0.018440  -0.013981
[...]
      751    0.020274   -0.020274  2+20002
      264    0.020046   -0.020046  -++2-0+
      841   -0.020031    0.020031  +2+200-

 State #    3  Energy =     -55.852441717

      Det      Coef        Coefp    Occupancy (Ignoring core)
      ---      ----        ----    --------- --------- -----
       36   -0.977694   -0.977694  22+2000
        1   -0.088402    0.088402  222+000
       71    0.070516   -0.070516  2+22000
      463    0.062015   -0.062015  20+2020
      472   -0.035576   -0.035576  2+020-+
      285    0.033594   -0.033594  02+2200
      123    0.033246   -0.033246  +-2200+
      297    0.031282   -0.031282  +202-0+
      262   -0.029971   -0.029971  2+02-0+
      142    0.029391    0.029391  22+0200
      121   -0.029250    0.029250  +22-00+
      157    0.028485   -0.028485  220+-0+
      249    0.026347   -0.026347  20+2200
       16   -0.026240    0.026240  222000+
      288   -0.024840   -0.024840  +-+2-+0
      460   -0.024667   -0.024667  -++2+-0
      145   -0.023866   -0.023866  -2++200
      823    0.023380   -0.023380  20+2002
       39   -0.023362   -0.023362  2-+2+00
      356    0.023291    0.023291  22+0020
       64    0.021995   -0.021995  2-020++
      282    0.021900    0.021900  +2+-200
       55   -0.021521   -0.021521  220-+0+
      859    0.021235   -0.021235  02+2002
      716    0.020661    0.020661  22+0002
       73    0.020630   -0.020630  2+-2+00
       41   -0.020188    0.020188  22+-0+0

 ---------------------------------------
    -DIABATIC STATES IN PROTOTYPES-     
 ---------------------------------------

     STATE:    1
 Group Ref#    Coefficients
     1    1    0.982755
     2    2    0.000350
     3    3   -0.001080

WEIGHT OF LISTED PROTOTYPES:   96.58%

     STATE:    2
 Group Ref#    Coefficients
     1    1    0.000350
     2    2    0.981318
     3    3    0.000418

WEIGHT OF LISTED PROTOTYPES:   96.30%

     STATE:    3
 Group Ref#    Coefficients
     1    1   -0.001080
     2    2    0.000418
     3    3    0.983021

WEIGHT OF LISTED PROTOTYPES:   96.63%

 --------------------------------------------------
 IN DIRECT MAX. DIABATIZATION FOR GMC-QDPT

 DIRECT MAXIMIZATION (DM) WITHOUT TRUNCATING ADIABATS
 EXPANSIONS INTO THE REFERENCE CONFIGURATION SPACE
 --------------------------------------------------

 -------------------------------------------
 - DM DIABT PT HAMILTONIAN MATRIX ELEMENTS -
 -------------------------------------------
                                            
 --- DIABATIC ENERGIES (DIAGONAL ELEMENT) ---       HARTREE            EV
 STATE #  1'S GMC-PT-LEVEL DIABATIC ENERGY=     -55.978903406       0.000000000
 STATE #  2'S GMC-PT-LEVEL DIABATIC ENERGY=     -55.723426538       6.951879660
 STATE #  3'S GMC-PT-LEVEL DIABATIC ENERGY=     -55.852441707       3.441198107

 --- DIABATIC COUPLINGS (OFF DIAGONAL ELEMENTS)---  HATREE            EV
 STATE #  1 &  2'S GMC-PT-LEVEL COUPLING  =       0.030388558       0.826914771
 STATE #  1 &  3'S GMC-PT-LEVEL COUPLING  =       0.007803382       0.212340840
 STATE #  2 &  3'S GMC-PT-LEVEL COUPLING  =      -0.011247504      -0.306060161

 ---------------------------------------
     - ROTATION TO DIABATIC STATES -    
 ---------------------------------------
 ROWS=ADIABATIC, COLUMNS=DIABATIC STATES

             1           2           3

    1   -0.9904763   0.1189178   0.0693924
    2    0.0778808   0.0682813   0.9946217
    3   -0.1135400  -0.9905535   0.0768924

 ---------------------------------------
          - DIABATIC STATES -           
 ---------------------------------------

 State #    1  Energy =     -55.978903406

      Det      Coef        Coefp    Occupancy (Ignoring core)
      ---      ----        ----    --------- --------- -----
        1    0.964850   -0.964850  222+000
       17    0.111853    0.111853  22-+00+
      701   -0.080745   -0.080745  22++00-
      717   -0.076471   -0.076471  220+002
        4    0.069616   -0.069616  2-2++00
      176   -0.067950    0.067950  2+2+-00
      393   -0.063763   -0.063763  202+020
        6   -0.043172    0.043172  22200+0
      402    0.040952   -0.040952  2+-+0-+
      708    0.038329   -0.038329  2-++0+-
      215   -0.035691   -0.035691  022+200
      227   -0.034724   -0.034724  +2-+-0+
      705   -0.034165   -0.034165  -2+++0-
      390    0.032326   -0.032326  -+2++-0
      218    0.032250   -0.032250  +-2+-+0
       51   -0.031108    0.031108  22+-00+
      212    0.028682    0.028682  +220200
      122    0.028263    0.028263  +2-200+
       76    0.024903    0.024903  2+2-0+0
      773    0.024354   -0.024354  +2-++0-
      159    0.023660   -0.023660  -2++-0+
      702    0.023616    0.023616  22+0+0-
      192    0.023361   -0.023361  2+-+-0+
      143   -0.023245   -0.023245  220+200
      113   -0.023237    0.023237  +-220+0
        2    0.023117   -0.023117  2220+00
      179   -0.022280   -0.022280  202+200
      704    0.022185   -0.022185  2-+++0-
      424   -0.021922   -0.021922  +-2++-0
      387   -0.021541    0.021541  2+20+-0
      184   -0.021123   -0.021123  -+2+-+0
     1051   -0.020859   -0.020859  2+++0--
      368   -0.020249   -0.020249  2-++0-+

 State #    2  Energy =     -55.723426538

      Det      Coef        Coefp    Occupancy (Ignoring core)
      ---      ----        ----    --------- --------- -----
       71   -0.968674    0.968674  2+22000
      806   -0.082190   -0.082190  2++200-
      822    0.079095   -0.079095  2+02002
       87    0.069117   -0.069117  2+-200+
       78   -0.053357    0.053357  20220+0
       36    0.046673    0.046673  22+2000
      813    0.044733   -0.044733  20+20+-
       74   -0.042549    0.042549  2022+00
      111    0.042007   -0.042007  +22-0+0
      122    0.040713    0.040713  +2-200+
      386    0.039915   -0.039915  2+2+0-0
      106   -0.038834   -0.038834  +222000
      332   -0.036949    0.036949  ++-2-0+
      810   -0.036046   -0.036046  -++2+0-
      320    0.036040    0.036040  0+22200
       76   -0.030909   -0.030909  2+2-0+0
      323   -0.030323    0.030323  +022-+0
      317    0.029819   -0.029819  ++2-200
      180   -0.029546    0.029546  -+2+200
       99   -0.027927    0.027927  20-20++
      177    0.027841   -0.027841  2+20200
       38   -0.027576    0.027576  2202+00
      807   -0.027124    0.027124  2++-+0-
        6    0.026812   -0.026812  22200+0
      192   -0.026724    0.026724  2+-+-0+
      248    0.026696   -0.026696  2+02200
      264    0.025006   -0.025006  -++2-0+
      878    0.024754    0.024754  ++-2+0-
       51    0.023973   -0.023973  22+-00+
      391    0.023600   -0.023600  2+20020
      841   -0.023190    0.023190  +2+200-
      183   -0.022263    0.022263  202+-+0
      421   -0.022114   -0.022114  +22+0-0
      109   -0.020413    0.020413  +-22+00
       90    0.020301    0.020301  2+--+0+
      246   -0.020201   -0.020201  2++2-00

 State #    3  Energy =     -55.852441707

      Det      Coef        Coefp    Occupancy (Ignoring core)
      ---      ----        ----    --------- --------- -----
       36   -0.967421   -0.967421  22+2000
       39   -0.100239   -0.100239  2-+2+00
      246    0.077948    0.077948  2++2-00
       41   -0.072245    0.072245  22+-0+0
      351    0.063626    0.063626  22++0-0
      463    0.061434   -0.061434  20+2020
       52   -0.053813    0.053813  220200+
       71   -0.046513    0.046513  2+22000
      472   -0.043466   -0.043466  2+020-+
      285    0.035136   -0.035136  02+2200
      297    0.034720   -0.034720  +202-0+
      121   -0.034219    0.034219  +22-00+
      460   -0.032491   -0.032491  -++2+-0
      288   -0.031815   -0.031815  +-+2-+0
      145   -0.029521   -0.029521  -2++200
      123    0.029515   -0.029515  +-2200+
      282    0.029134    0.029134  +2+-200
      157    0.028836   -0.028836  220+-0+
      456    0.028647    0.028647  2++20-0
       43   -0.028578   -0.028578  2-+20+0
      142    0.027964    0.027964  22+0200
       64    0.027456   -0.027456  2-020++
      716    0.024564    0.024564  22+0002
       16   -0.023540    0.023540  222000+
      262   -0.022799   -0.022799  2+02-0+
       55   -0.022633   -0.022633  220-+0+
       73    0.022291   -0.022291  2+-2+00
      457   -0.022105    0.022105  2++-+-0
      249    0.022060   -0.022060  20+2200
      148   -0.021964   -0.021964  2-++-+0
      494    0.021862   -0.021862  +-+2+-0
      843   -0.021615   -0.021615  +202+0-
      491    0.021356   -0.021356  +2+20-0
      367    0.021352   -0.021352  220+0-+
       86    0.020837    0.020837  2+2-00+
      859    0.020698   -0.020698  02+2002

 ---------------------------------------
      - DIABATIC STATES IN CMO -        
 ---------------------------------------

 State #    1  Energy =     -55.978903406

      Det      Coef        Coefp    Occupancy (Ignoring core)
      ---      ----        ----    --------- --------- -----
        1    0.967360   -0.967360  222+000
       71   -0.112685    0.112685  2+22000
       36   -0.095484   -0.095484  22+2000
      717   -0.079991   -0.079991  220+002
      393   -0.064398   -0.064398  202+020
       17    0.041472    0.041472  22-+00+
        8   -0.041044    0.041044  2-2+0+0
      215   -0.034020   -0.034020  022+200
      708    0.033945   -0.033945  2-++0+-
      705   -0.032189   -0.032189  -2+++0-
      402    0.031705   -0.031705  2+-+0-+
      227   -0.030400   -0.030400  +2-+-0+
      143   -0.029563   -0.029563  220+200
       51   -0.029318    0.029318  22+-00+
      106   -0.028598   -0.028598  +222000
      122    0.027154    0.027154  +2-200+
        2    0.026552   -0.026552  2220+00
      390    0.025853   -0.025853  -+2++-0
      704    0.025603   -0.025603  2-+++0-
      218    0.025313   -0.025313  +-2+-+0
       76    0.023673    0.023673  2+2-0+0
      702    0.023532    0.023532  22+0+0-
      113   -0.022491    0.022491  +-220+0
      212    0.022439    0.022439  +220200
      179   -0.022357   -0.022357  202+200
      192    0.021617   -0.021617  2+-+-0+
      159    0.020823   -0.020823  -2++-0+
      753   -0.020742   -0.020742  202+002
      773    0.020636   -0.020636  +2-++0-

 State #    2  Energy =     -55.723426538

      Det      Coef        Coefp    Occupancy (Ignoring core)
      ---      ----        ----    --------- --------- -----
       71   -0.971115    0.971115  2+22000
        1   -0.119337    0.119337  222+000
      822    0.079996   -0.079996  2+02002
       36   -0.059727   -0.059727  22+2000
      111    0.041438   -0.041438  +22-0+0
      122    0.039366    0.039366  +2-200+
      320    0.034160    0.034160  0+22200
      813    0.033809   -0.033809  20+20+-
      810   -0.031756   -0.031756  -++2+0-
      248    0.030769   -0.030769  2+02200
       38   -0.030617    0.030617  2202+00
      332   -0.030411    0.030411  ++-2-0+
      177    0.027308   -0.027308  2+20200
       76    0.027262    0.027262  2+2-0+0
      192   -0.026403    0.026403  2+-+-0+
      391    0.025711   -0.025711  2+20020
      809    0.025310   -0.025310  20+2+0-
      323   -0.024485    0.024485  +022-+0
      180   -0.024116    0.024116  -+2+200
      421   -0.023922   -0.023922  +22+0-0
       51    0.023500   -0.023500  22+-00+
      807   -0.023377    0.023377  2++-+0-
      317    0.022213   -0.022213  ++2-200
       78   -0.022132    0.022132  20220+0
       99   -0.020469    0.020469  20-20++
      878    0.020403    0.020403  ++-2+0-
      751    0.020274   -0.020274  2+20002
      264    0.020046   -0.020046  -++2-0+
      841   -0.020031    0.020031  +2+200-

 State #    3  Energy =     -55.852441707

      Det      Coef        Coefp    Occupancy (Ignoring core)
      ---      ----        ----    --------- --------- -----
       36   -0.977694   -0.977694  22+2000
        1   -0.088402    0.088402  222+000
       71    0.070516   -0.070516  2+22000
      463    0.062015   -0.062015  20+2020
      472   -0.035576   -0.035576  2+020-+
      285    0.033594   -0.033594  02+2200
      123    0.033246   -0.033246  +-2200+
      297    0.031282   -0.031282  +202-0+
      262   -0.029971   -0.029971  2+02-0+
      142    0.029391    0.029391  22+0200
      121   -0.029250    0.029250  +22-00+
      157    0.028485   -0.028485  220+-0+
      249    0.026347   -0.026347  20+2200
       16   -0.026240    0.026240  222000+
      288   -0.024840   -0.024840  +-+2-+0
      460   -0.024667   -0.024667  -++2+-0
      145   -0.023866   -0.023866  -2++200
      823    0.023380   -0.023380  20+2002
       39   -0.023362   -0.023362  2-+2+00
      356    0.023291    0.023291  22+0020
       64    0.021995   -0.021995  2-020++
      282    0.021900    0.021900  +2+-200
       55   -0.021521   -0.021521  220-+0+
      859    0.021235   -0.021235  02+2002
      716    0.020661    0.020661  22+0002
       73    0.020630   -0.020630  2+-2+00
       41   -0.020188    0.020188  22+-0+0

 ---------------------------------------
    -DIABATIC STATES IN PROTOTYPES-     
 ---------------------------------------

     STATE:    1
 Group Ref#    Coefficients
     1    1    0.982755
     2    2    0.000350
     3    3   -0.001080

WEIGHT OF LISTED PROTOTYPES:   96.58%

     STATE:    2
 Group Ref#    Coefficients
     1    1    0.000351
     2    2    0.981318
     3    3    0.000418

WEIGHT OF LISTED PROTOTYPES:   96.30%

     STATE:    3
 Group Ref#    Coefficients
     1    1   -0.001080
     2    2    0.000418
     3    3    0.983021

WEIGHT OF LISTED PROTOTYPES:   96.63%

     DIRECT MAX. DIABATIZATION FINISHED    
 CPU     0: STEP CPU TIME=     0.24 TOTAL CPU TIME=         13.7 (      0.2 MIN)
 TOTAL WALL CLOCK TIME=         13.7 SECONDS, CPU UTILIZATION IS    99.85%

DIABATS FOR SPIN-ORBIT CALCULATION ARE READY

TRANSITION DIPOLES BETWEEN ADIABATS (in A.U.):

STATE PAIR      X         Y         Z
    1    1 -0.221177 -0.046806  0.752169
    2    1  0.010227  0.038634 -0.041588
    2    2  0.001345 -0.066721  0.261071
    3    1  0.080967 -0.011200  0.059427
    3    2  0.048063 -0.175744  0.000900
    3    3 -0.516876 -0.075832  0.248094


TRANSITION DIPOLES BETWEEN DIABATS (in A.U.):

STATE PAIR      X         Y         Z
    1    1 -0.207856 -0.052672  0.762458
    2    1  0.041594 -0.001543  0.000550
    2    2 -0.535688 -0.048339  0.240485
    3    1 -0.002145 -0.019406  0.002015
    3    2 -0.013033  0.178503 -0.004498
    3    3  0.006837 -0.088347  0.258391

TRANSITION DIPOLES BETWEEN DIRECT MAX. DIABATS (in A.U.):

STATE PAIR      X         Y         Z
    1    1 -0.207856 -0.052672  0.762458
    2    1  0.041594 -0.001543  0.000550
    2    2 -0.535688 -0.048339  0.240485
    3    1 -0.002146 -0.019406  0.002015
    3    2 -0.013033  0.178503 -0.004498
    3    3  0.006837 -0.088347  0.258391
 No $TRANST Group Found.
 Quit without doing spin-orbit coupling
 ..... DONE WITH MP2 ENERGY .....
 CPU     0: STEP CPU TIME=     0.01 TOTAL CPU TIME=         13.7 (      0.2 MIN)
 TOTAL WALL CLOCK TIME=         13.7 SECONDS, CPU UTILIZATION IS    99.85%
            100000000  WORDS OF DYNAMIC MEMORY USED
 EXECUTION OF GAMESS TERMINATED NORMALLY Wed Nov 16 19:14:19 2022
 DDI: 715512 bytes (0.7 MB / 0 MWords) used by master data server.

 ----------------------------------------
 CPU timing information for all processes
 ========================================
 0: 13.341 + 0.387 = 13.729
 ----------------------------------------
Note: The following floating-point exceptions are signalling: IEEE_DENORMAL
 ddikick.x: exited gracefully.
unset echo
----- accounting info -----
Files used on the master node io002 were:
-rw-r--r-- 1 bsonghao nooijen   20710 Nov 16 19:14 /scratch/bsonghao/nh3_diabatization_2d_at_mode_7_8_dist-0.1_-0.4.F05
-rw-r--r-- 1 bsonghao nooijen  363520 Nov 16 19:14 /scratch/bsonghao/nh3_diabatization_2d_at_mode_7_8_dist-0.1_-0.4.F09
-rw-r--r-- 1 bsonghao nooijen 1995920 Nov 16 19:14 /scratch/bsonghao/nh3_diabatization_2d_at_mode_7_8_dist-0.1_-0.4.F10
-rw-r--r-- 1 bsonghao nooijen  131264 Nov 16 19:14 /scratch/bsonghao/nh3_diabatization_2d_at_mode_7_8_dist-0.1_-0.4.F13
-rw-r--r-- 1 bsonghao nooijen  180312 Nov 16 19:14 /scratch/bsonghao/nh3_diabatization_2d_at_mode_7_8_dist-0.1_-0.4.F15
-rw-r--r-- 1 bsonghao nooijen       0 Nov 16 19:14 /scratch/bsonghao/nh3_diabatization_2d_at_mode_7_8_dist-0.1_-0.4.F16
-rw-r--r-- 1 bsonghao nooijen    9808 Nov 16 19:14 /scratch/bsonghao/nh3_diabatization_2d_at_mode_7_8_dist-0.1_-0.4.F70
-rw-r--r-- 1 bsonghao nooijen    9808 Nov 16 19:14 /scratch/bsonghao/nh3_diabatization_2d_at_mode_7_8_dist-0.1_-0.4.F71
-rw-r--r-- 1 bsonghao nooijen   19608 Nov 16 19:14 /scratch/bsonghao/nh3_diabatization_2d_at_mode_7_8_dist-0.1_-0.4.F72
-rw-r--r-- 1 bsonghao nooijen   19608 Nov 16 19:14 /scratch/bsonghao/nh3_diabatization_2d_at_mode_7_8_dist-0.1_-0.4.F73
-rw-r--r-- 1 bsonghao nooijen 1920824 Nov 16 19:14 /scratch/bsonghao/nh3_diabatization_2d_at_mode_7_8_dist-0.1_-0.4.F74
-rw-r--r-- 1 bsonghao nooijen       0 Nov 16 19:14 /scratch/bsonghao/nh3_diabatization_2d_at_mode_7_8_dist-0.1_-0.4.F75
-rw-r--r-- 1 bsonghao nooijen   58848 Nov 16 19:14 /scratch/bsonghao/nh3_diabatization_2d_at_mode_7_8_dist-0.1_-0.4.F76
-rw-r--r-- 1 bsonghao nooijen       0 Nov 16 19:14 /scratch/bsonghao/nh3_diabatization_2d_at_mode_7_8_dist-0.1_-0.4.F77
-rw-r--r-- 1 bsonghao nooijen    1864 Nov 16 19:14 /scratch/bsonghao/nh3_diabatization_2d_at_mode_7_8_dist-0.1_-0.4.F78
-rw-r--r-- 1 bsonghao nooijen   39208 Nov 16 19:14 /scratch/bsonghao/nh3_diabatization_2d_at_mode_7_8_dist-0.1_-0.4.F79
-rw-r--r-- 1 bsonghao nooijen     104 Nov 16 19:14 /scratch/bsonghao/nh3_diabatization_2d_at_mode_7_8_dist-0.1_-0.4.F80
-rw-r--r-- 1 bsonghao nooijen   13472 Nov 16 19:14 /scratch/bsonghao/nh3_diabatization_2d_at_mode_7_8_dist-0.1_-0.4.F81
-rw-r--r-- 1 bsonghao nooijen      16 Nov 16 19:14 /scratch/bsonghao/nh3_diabatization_2d_at_mode_7_8_dist-0.1_-0.4.F82
-rw-r--r-- 1 bsonghao nooijen   19216 Nov 16 19:14 /scratch/bsonghao/nh3_diabatization_2d_at_mode_7_8_dist-0.1_-0.4.F83
-rw-r--r-- 1 bsonghao nooijen   29712 Nov 16 19:14 /scratch/bsonghao/nh3_diabatization_2d_at_mode_7_8_dist-0.1_-0.4.F84
-rw-r--r-- 1 bsonghao nooijen  401576 Nov 16 19:14 /scratch/bsonghao/nh3_diabatization_2d_at_mode_7_8_dist-0.1_-0.4.F85
-rw-r--r-- 1 bsonghao nooijen  903672 Nov 16 19:14 /scratch/bsonghao/nh3_diabatization_2d_at_mode_7_8_dist-0.1_-0.4.F86
-rw-r--r-- 1 bsonghao nooijen     656 Nov 16 19:14 /scratch/bsonghao/nh3_diabatization_2d_at_mode_7_8_dist-0.1_-0.4.F87
-rw-r--r-- 1 bsonghao nooijen   28912 Nov 16 19:14 /scratch/bsonghao/nh3_diabatization_2d_at_mode_7_8_dist-0.1_-0.4.F88
-rw-r--r-- 1 bsonghao nooijen     240 Nov 16 19:14 /scratch/bsonghao/nh3_diabatization_2d_at_mode_7_8_dist-0.1_-0.4.F89
-rw-r--r-- 1 bsonghao nooijen       0 Nov 16 19:14 /scratch/bsonghao/nh3_diabatization_2d_at_mode_7_8_dist-0.1_-0.4.F90
-rw-r--r-- 1 bsonghao nooijen   13760 Nov 16 19:14 /scratch/bsonghao/nh3_diabatization_2d_at_mode_7_8_dist-0.1_-0.4.F91
-rw-r--r-- 1 bsonghao nooijen   22776 Nov 16 19:14 /scratch/bsonghao/nh3_diabatization_2d_at_mode_7_8_dist-0.1_-0.4.F92
-rw-r--r-- 1 bsonghao nooijen   23168 Nov 16 19:14 /scratch/bsonghao/nh3_diabatization_2d_at_mode_7_8_dist-0.1_-0.4.F93
-rw-r--r-- 1 bsonghao nooijen   22776 Nov 16 19:14 /scratch/bsonghao/nh3_diabatization_2d_at_mode_7_8_dist-0.1_-0.4.F94
-rw-r--r-- 1 bsonghao nooijen   13760 Nov 16 19:14 /scratch/bsonghao/nh3_diabatization_2d_at_mode_7_8_dist-0.1_-0.4.F95
-rw-r--r-- 1 bsonghao nooijen   29440 Nov 16 19:14 /scratch/bsonghao/nh3_diabatization_2d_at_mode_7_8_dist-0.1_-0.4.F96
-rw-r--r-- 1 bsonghao nooijen    1184 Nov 16 19:14 /scratch/bsonghao/nh3_diabatization_2d_at_mode_7_8_dist-0.1_-0.4.F97
-rw-r--r-- 1 bsonghao nooijen    9808 Nov 16 19:14 /scratch/bsonghao/nh3_diabatization_2d_at_mode_7_8_dist-0.1_-0.4.F98
-rw-r--r-- 1 bsonghao nooijen   30264 Nov 16 19:14 /scratch/bsonghao/nh3_diabatization_2d_at_mode_7_8_dist-0.1_-0.4.F99
ls: No match.
ls: No match.
ls: No match.
Wed 16 Nov 2022 07:14:22 PM EST
0.281u 0.051s 0:17.10 1.9%	0+0k 48+224io 0pf+0w
