----- GAMESS execution script 'rungms' -----
This job is running on host io002
under operating system Linux at Wed 16 Nov 2022 07:31:46 PM EST
Available scratch disk space (Kbyte units) at beginning of the job is
Filesystem       1K-blocks       Used   Available Use% Mounted on
/dev/sdc1      15378471580 3278917120 11318349060  23% /scratch
GAMESS temporary binary files will be written to /scratch/bsonghao
GAMESS supplementary output files will be written to /home/bsonghao/.gamess_ascii_files/267638
Copying input file nh3_diabatization_2d_at_mode_7_8_dist0.1_0.3.inp to your run's scratch directory...
cp nh3_diabatization_2d_at_mode_7_8_dist0.1_0.3.inp /scratch/bsonghao/nh3_diabatization_2d_at_mode_7_8_dist0.1_0.3.F05
unset echo
/home/bjb2chen/gamess/ddikick.x /home/bjb2chen/gamess/gamess.00.x nh3_diabatization_2d_at_mode_7_8_dist0.1_0.3 -ddi 1 1 io002 -scr /scratch/bsonghao

 Distributed Data Interface kickoff program.
 Initiating 1 compute processes on 1 nodes to run the following command:
 /home/bjb2chen/gamess/gamess.00.x nh3_diabatization_2d_at_mode_7_8_dist0.1_0.3 

          ******************************************************
          *         GAMESS VERSION = 02 AUG 2018 (R2)         *
          *             FROM IOWA STATE UNIVERSITY             *
          * M.W.SCHMIDT, K.K.BALDRIDGE, J.A.BOATZ, S.T.ELBERT, *
          *   M.S.GORDON, J.H.JENSEN, S.KOSEKI, N.MATSUNAGA,   *
          *          K.A.NGUYEN, S.J.SU, T.L.WINDUS,           *
          *       TOGETHER WITH M.DUPUIS, J.A.MONTGOMERY       *
          *         J.COMPUT.CHEM.  14, 1347-1363(1993)        *
          **************** 64 BIT LINUX VERSION ****************

  SINCE 1993, STUDENTS AND POSTDOCS WORKING AT IOWA STATE UNIVERSITY
  AND ALSO IN THEIR VARIOUS JOBS AFTER LEAVING ISU HAVE MADE IMPORTANT
  CONTRIBUTIONS TO THE CODE:
     IVANA ADAMOVIC, CHRISTINE AIKENS, YURI ALEXEEV, POOJA ARORA,
     ANDREY ASADCHEV, ROB BELL, PRADIPTA BANDYOPADHYAY, JONATHAN BENTZ,
     BRETT BODE, KURT BRORSEN, CALEB CARLIN, GALINA CHABAN, WEI CHEN,
     CHEOL HO CHOI, PAUL DAY, ALBERT DEFUSCO, NUWAN DESILVA, TIM DUDLEY,
     DMITRI FEDOROV, ALEX FINDLATER, GRAHAM FLETCHER, MARK FREITAG,
     KURT GLAESEMANN, ANASTASIA GUININA,
     DAN KEMP, GRANT MERRILL, NORIYUKI MINEZAWA, JONATHAN MULLIN,
     TAKESHI NAGATA, SEAN NEDD, HEATHER NETZLOFF, BOSILJKA NJEGIC, RYAN OLSON,
     MIKE PAK, BUU PHAM,
     SPENCER PRUITT, LUKE ROSKOP, JIM SHOEMAKER, LYUDMILA SLIPCHENKO,
     TONY SMITH, SAROM SOK LEANG, JIE SONG, TETSUYA TAKETSUGU, SIMON WEBB,
     PENG XU, SOOHAENG YOO, FEDERICO ZAHARIEV

  ADDITIONAL CODE HAS BEEN PROVIDED BY COLLABORATORS IN OTHER GROUPS:
     IOWA STATE UNIVERSITY:
          JOE IVANIC, AARON WEST, LAIMUTIS BYTAUTAS, KLAUS RUEDENBERG
     UNIVERSITY OF TOKYO: KIMIHIKO HIRAO, TAKAHITO NAKAJIMA,
          TAKAO TSUNEDA, MUNEAKI KAMIYA, SUSUMU YANAGISAWA,
          KIYOSHI YAGI, MAHITO CHIBA, SEIKEN TOKURA, NAOAKI KAWAKAMI
     UNIVERSITY OF AARHUS: FRANK JENSEN
     UNIVERSITY OF IOWA: VISVALDAS KAIRYS, HUI LI
     NATIONAL INST. OF STANDARDS AND TECHNOLOGY: WALT STEVENS, DAVID GARMER
     UNIVERSITY OF PISA: BENEDETTA MENNUCCI, JACOPO TOMASI
     UNIVERSITY OF MEMPHIS: HENRY KURTZ, PRAKASHAN KORAMBATH
     UNIVERSITY OF ALBERTA: TOBY ZENG, MARIUSZ KLOBUKOWSKI
     UNIVERSITY OF NEW ENGLAND: MARK SPACKMAN
     MIE UNIVERSITY: HIROAKI UMEDA
     NAT. INST. OF ADVANCED INDUSTRIAL SCIENCE AND TECHNOLOGY: KAZUO KITAURA
     MICHIGAN STATE UNIVERSITY:
          KAROL KOWALSKI, MARTA WLOCH, JEFFREY GOUR, JESSE LUTZ,
          WEI LI, JUN SHEN, J. EMILIANO DEUSTUA, PIOTR PIECUCH
     UNIVERSITY OF MINNESOTA:
          YINAN SHU
     UNIVERSITY OF SILESIA: MONIKA MUSIAL, STANISLAW KUCHARSKI
     FACULTES UNIVERSITAIRES NOTRE-DAME DE LA PAIX:
          OLIVIER QUINET, BENOIT CHAMPAGNE
     UNIVERSITY OF CALIFORNIA - SANTA BARBARA: BERNARD KIRTMAN
     INSTITUTE FOR MOLECULAR SCIENCE:
          KAZUYA ISHIMURA, MICHIO KATOUDA, AND SHIGERU NAGASE
     UNIVERSITY OF NOTRE DAME: ANNA POMOGAEVA, DAN CHIPMAN
     KYUSHU UNIVERSITY:
          HARUYUKI NAKANO,
          FENG LONG GU, JACEK KORCHOWIEC, MARCIN MAKOWSKI, AND YURIKO AOKI,
          HIROTOSHI MORI AND EISAKU MIYOSHI
     PENNSYLVANIA STATE UNIVERSITY:
          TZVETELIN IORDANOV, CHET SWALINA, JONATHAN SKONE,
          SHARON HAMMES-SCHIFFER
     WASEDA UNIVERSITY:
          MASATO KOBAYASHI, TOMOKO AKAMA, TSUGUKI TOUMA,
          TAKESHI YOSHIKAWA, YASUHIRO IKABATA, JUNJI SEINO,
          YUYA NAKAJIMA, HIROMI NAKAI
     NANJING UNIVERSITY: SHUHUA LI
     UNIVERSITY OF NEBRASKA:
          PEIFENG SU, DEJUN SI, NANDUN THELLAMUREGE, YALI WANG, HUI LI
     UNIVERSITY OF ZURICH: ROBERTO PEVERATI, KIM BALDRIDGE
     N. COPERNICUS UNIVERSITY AND JACKSON STATE UNIVERSITY:
          MARIA BARYSZ
     UNIVERSITY OF COPENHAGEN: Jimmy Kromann, CASPER STEINMANN
     TOKYO INSTITUTE OF TECHNOLOGY: HIROYA NAKATA
     NAGOYA UNIVERSITY: YOSHIO NISHIMOTO, STEPHAN IRLE
     MOSCOW STATE UNIVERSITY: VLADIMIR MIRONOV

 EXECUTION OF GAMESS BEGUN Wed Nov 16 19:31:47 2022

            ECHO OF THE FIRST FEW INPUT CARDS -
 INPUT CARD> $system kdiag=3 mwords=100 memddi=1000 parall=.t. $end                         
 INPUT CARD> $contrl runtyp=energy ispher=1 $end                                            
 INPUT CARD> $contrl icut=9 itol=20 inttyp=rysquad qmttol=1.0d-05 nosym=1 $end              
 INPUT CARD> $scf    npunch=2 conv=1.0d-06 dirscf=.t.      $end                             
 INPUT CARD> $contrl scftyp=mcscf  mult=2 maxit=200 icharg=1 mplevl=2 $end                  
 INPUT CARD> $guess  guess=moread norb=29 purify=.t. $end                                   
 INPUT CARD> $basis  gbasis=ccd $end                                                        
 INPUT CARD> $mcscf  cistep=gmcci fullnr=.t. finci=mos                                      
 INPUT CARD>         acurcy=1.d-6 maxit=100 $end                                            
 INPUT CARD> $trans  dirtrf=.t. $end                                                        
 INPUT CARD> $mrmp   mrpt=gmcpt rdvecs=.f. $end                                             
 INPUT CARD> $gmcpt  nmofzc=0 nmodoc=1 nmoact=7 nelact=7 stsym(1)=A                         
 INPUT CARD>         reftyp=ormas nspace=1 mstart(1)=2 mine(1)=7 maxe(1)=7                  
 INPUT CARD>         kstate(1)=1,1,1                                                        
 INPUT CARD>         wstate(1)=1,1,1                                                        
 INPUT CARD>         iwgt=0 thrwgt=-1.0 krot=.f. kszdoe=.f. knospn=.f.                      
 INPUT CARD>         thrde=-1.0 edshft=0.02 $end                                            
 INPUT CARD> $data                                                                          
 INPUT CARD> NH3+ 3 states calculation at NH3 structure.                                    
 INPUT CARD> c1                                                                             
 INPUT CARD>N 7.0 -0.018686754000000003 -0.006228902999999999 -0.1693808462                 
 INPUT CARD>H 1.0 -0.274374318 0.9273960088000001 0.23972565510000002                       
 INPUT CARD>H 1.0 -0.35079964099999994 -0.9138190358 0.19400417410000004                    
 INPUT CARD>H 1.0 0.884831414 0.07297574999999998 0.33565333610000003                       
 INPUT CARD>$end                                                                            
 INPUT CARD>--- OPTIMIZED RHF      MO-S --- GENERATED AT Mon Nov 14 16:47:08 2022           
 INPUT CARD>E=      -56.3825050291, E(NUC)=   11.8429239490                                 
 INPUT CARD> $VEC                                                                           
 INPUT CARD> 1  1-1.00134066E+00-2.25158504E-03 3.44925845E-03 0.00000000E+00 0.00000000E+00
 INPUT CARD> 1  2-2.13170927E-03 0.00000000E+00 0.00000000E+00 6.57129898E-04-6.87950443E-05
 INPUT CARD> 1  3-6.87950443E-05 1.37590089E-04 0.00000000E+00 0.00000000E+00 0.00000000E+00
 INPUT CARD> 1  4 3.25502815E-04-4.84772356E-04 3.62525460E-04-6.27912517E-04-3.45956485E-04
 INPUT CARD> 1  5 3.25502815E-04-4.84772356E-04 3.62525460E-04 6.27912517E-04-3.45956485E-04
 INPUT CARD> 1  6 3.25502815E-04-4.84772356E-04-7.25050921E-04 0.00000000E+00-3.45956485E-04
 INPUT CARD> 2  1 1.31286642E-02-4.05911371E-01-2.82090992E-01 0.00000000E+00 0.00000000E+00
 INPUT CARD> 2  2-7.71489043E-02 0.00000000E+00 0.00000000E+00 9.73717494E-03 6.62450916E-04
 INPUT CARD> 2  3 6.62450916E-04-1.32490183E-03 0.00000000E+00 0.00000000E+00 0.00000000E+00
 INPUT CARD> 2  4-1.96090317E-01-1.96656153E-02-1.74855877E-02 3.02859263E-02 8.68214399E-03
 INPUT CARD> 2  5-1.96090317E-01-1.96656153E-02-1.74855877E-02-3.02859263E-02 8.68214399E-03
 INPUT CARD> 2  6-1.96090317E-01-1.96656153E-02 3.49711754E-02 0.00000000E+00 8.68214399E-03
 INPUT CARD> 3  1 0.00000000E+00 0.00000000E+00 0.00000000E+00 4.48608762E-01 0.00000000E+00
 INPUT CARD> 3  2 0.00000000E+00 2.18692520E-01 0.00000000E+00 0.00000000E+00 1.30198027E-02
 INPUT CARD> 3  3-1.30198027E-02 0.00000000E+00 0.00000000E+00 2.71832968E-02 0.00000000E+00
 INPUT CARD> 3  4-1.85332726E-01-7.03958951E-02 8.47929477E-03 1.95242443E-02 8.32835058E-03
 INPUT CARD> 3  5-1.85332726E-01-7.03958951E-02 8.47929477E-03-1.95242443E-02 8.32835058E-03
 INPUT CARD> 3  6 3.70665453E-01 1.40791790E-01-2.53376884E-02 0.00000000E+00-1.66567012E-02
 INPUT CARD> 4  1 0.00000000E+00 0.00000000E+00 0.00000000E+00 0.00000000E+00 4.48608762E-01
 INPUT CARD> 4  2 0.00000000E+00 0.00000000E+00 2.18692520E-01 0.00000000E+00 0.00000000E+00
 INPUT CARD> 4  3 0.00000000E+00 0.00000000E+00-1.50339731E-02 0.00000000E+00 2.71832968E-02
 INPUT CARD> 4  4 3.21005698E-01 1.21929267E-01 1.95242443E-02-1.40653607E-02-1.44251263E-02
  100000000 WORDS OF MEMORY AVAILABLE

     BASIS OPTIONS
     -------------
     GBASIS=CCD          IGAUSS=       0      POLAR=NONE    
     NDFUNC=       0     NFFUNC=       0     DIFFSP=       F
     NPFUNC=       0      DIFFS=       F     BASNAM=        


     RUN TITLE
     ---------
  NH3+ 3 states calculation at NH3 structure.                                    

 THE POINT GROUP OF THE MOLECULE IS C1      
 THE ORDER OF THE PRINCIPAL AXIS IS     0

 ATOM      ATOMIC                      COORDINATES (BOHR)
           CHARGE         X                   Y                   Z
 N           7.0    -0.0353128447       -0.0117709199       -0.3200833869
 H           1.0    -0.5184922791        1.7525243387        0.4530158004
 H           1.0    -0.6629151981       -1.7268675800        0.3666147295
 H           1.0     1.6720889178        0.1379041712        0.6342928321

          INTERNUCLEAR DISTANCES (ANGS.)
          ------------------------------

                1 N          2 H          3 H          4 H     

   1 N       0.0000000    1.0509042 *  1.0325054 *  1.0381127 *
   2 H       1.0509042 *  0.0000000    1.8433676 *  1.4432581 *
   3 H       1.0325054 *  1.8433676 *  0.0000000    1.5876437 *
   4 H       1.0381127 *  1.4432581 *  1.5876437 *  0.0000000  

  * ... LESS THAN  3.000


     ATOMIC BASIS SET
     ----------------
 THE CONTRACTED PRIMITIVE FUNCTIONS HAVE BEEN UNNORMALIZED
 THE CONTRACTED BASIS FUNCTIONS ARE NOW NORMALIZED TO UNITY

  SHELL TYPE  PRIMITIVE        EXPONENT          CONTRACTION COEFFICIENT(S)

 N         

      1   S       1          9046.0000000    0.000699617413
      1   S       2          1357.0000000    0.005386054630
      1   S       3           309.3000000    0.027391021189
      1   S       4            87.7300000    0.103150591982
      1   S       5            28.5600000    0.278570663317
      1   S       6            10.2100000    0.448294849454
      1   S       7             3.8380000    0.278085928395
      1   S       8             0.7466000    0.015431561233

      2   S       9          9046.0000000   -0.000304990096
      2   S      10          1357.0000000   -0.002408026379
      2   S      11           309.3000000   -0.011944448725
      2   S      12            87.7300000   -0.048925992909
      2   S      13            28.5600000   -0.134472724725
      2   S      14            10.2100000   -0.315112577700
      2   S      15             3.8380000   -0.242857832550
      2   S      16             0.7466000    1.094382206854

      3   S      17             0.2248000    1.000000000000

      4   P      18            13.5500000    0.058905676772
      4   P      19             2.9170000    0.320461106714
      4   P      20             0.7973000    0.753042061792

      5   P      21             0.2185000    1.000000000000

      6   D      22             0.8170000    1.000000000000

 H         

      7   S      23            13.0100000    0.033498726390
      7   S      24             1.9620000    0.234800801174
      7   S      25             0.4446000    0.813682957883

      8   S      26             0.1220000    1.000000000000

      9   P      27             0.7270000    1.000000000000

 H         

     10   S      28            13.0100000    0.033498726390
     10   S      29             1.9620000    0.234800801174
     10   S      30             0.4446000    0.813682957883

     11   S      31             0.1220000    1.000000000000

     12   P      32             0.7270000    1.000000000000

 H         

     13   S      33            13.0100000    0.033498726390
     13   S      34             1.9620000    0.234800801174
     13   S      35             0.4446000    0.813682957883

     14   S      36             0.1220000    1.000000000000

     15   P      37             0.7270000    1.000000000000

 TOTAL NUMBER OF BASIS SET SHELLS             =   15
 NUMBER OF CARTESIAN GAUSSIAN BASIS FUNCTIONS =   30
 NOTE: THIS RUN WILL RESTRICT THE MO VARIATION SPACE TO SPHERICAL HARMONICS.
 THE NUMBER OF ORBITALS KEPT IN THE VARIATIONAL SPACE WILL BE PRINTED LATER.
 NUMBER OF ELECTRONS                          =    9
 CHARGE OF MOLECULE                           =    1
 SPIN MULTIPLICITY                            =    2
 NUMBER OF OCCUPIED ORBITALS (ALPHA)          =    5
 NUMBER OF OCCUPIED ORBITALS (BETA )          =    4
 TOTAL NUMBER OF ATOMS                        =    4
 THE NUCLEAR REPULSION ENERGY IS       11.6677168984

     $CONTRL OPTIONS
     ---------------
 SCFTYP=MCSCF        RUNTYP=ENERGY       EXETYP=RUN     
 MPLEVL=       2     CITYP =NONE         CCTYP =NONE         VBTYP =NONE    
 DFTTYP=NONE         TDDFT =NONE    
 MULT  =       2     ICHARG=       1     NZVAR =       0     COORD =UNIQUE  
 PP    =NONE         RELWFN=NONE         LOCAL =NONE         NUMGRD=       F
 ISPHER=       1     NOSYM =       1     MAXIT =     200     UNITS =ANGS    
 PLTORB=       F     MOLPLT=       F     AIMPAC=       F     FRIEND=        
 NPRINT=       7     IREST =       0     GEOM  =INPUT   
 NORMF =       0     NORMP =       0     ITOL  =      20     ICUT  =       9
 INTTYP=RYSQUAD      GRDTYP=BEST         QMTTOL= 1.0E-05

     $SYSTEM OPTIONS
     ---------------
  REPLICATED MEMORY=   100000000 WORDS (ON EVERY NODE).
 DISTRIBUTED MEMDDI=        1000 MILLION WORDS IN AGGREGATE,
 MEMDDI DISTRIBUTED OVER   1 PROCESSORS IS  1000000000 WORDS/PROCESSOR.
 TOTAL MEMORY REQUESTED ON EACH PROCESSOR=  1100000000 WORDS.
 TIMLIM=      525600.00 MINUTES, OR     365.0 DAYS.
 PARALL= T  BALTYP=  DLB     KDIAG=    3  COREFL= F
 MXSEQ2=     300 MXSEQ3=     150  mem10=         0

          ----------------
          PROPERTIES INPUT
          ----------------

     MOMENTS            FIELD           POTENTIAL          DENSITY
 IEMOM =       1   IEFLD =       0   IEPOT =       0   IEDEN =       0
 WHERE =COMASS     WHERE =NUCLEI     WHERE =NUCLEI     WHERE =NUCLEI  
 OUTPUT=BOTH       OUTPUT=BOTH       OUTPUT=BOTH       OUTPUT=BOTH    
 IEMINT=       0   IEFINT=       0                     IEDINT=       0
                                                       MORB  =       0

     -------------------------------
     INTEGRAL TRANSFORMATION OPTIONS
     -------------------------------
     NWORD  =            0
     CUTOFF = 1.0E-09     MPTRAN =       0
     DIRTRF =       T     AOINTS =DUP     

          ----------------------
          MCSCF INPUT PARAMETERS
          ----------------------
 CONVERGER SELECTION: FOCAS = F  SOSCF = F  FULLNR = T  QUD = F  JACOBI = F
 SECULAR EQUATION METHOD CISTEP = GMCCI   
 --- GENERAL INPUT OPTIONS:
 MAXIT =     100  MICIT =       1  ACURCY= 1.000E-06
 DAMP  =   0.000  CANONC=       T  ENGTOL= 1.000E-10
 EKT   =       F  NPUNCH=       2  NWORD =         0
 REGENERATE CI AFTER CONVERGENCE = NONE    
 DIABATIZATION AFTER CONVERGENCE =        F
 --- INPUT FOR FULLNR CONVERGER:
 METHOD=DM2       FORS  =       F  DROPC =       T
 LINSER=       F  FCORE =       F  NORB  =      30

          ----------------------
          INTEGRAL INPUT OPTIONS
          ----------------------
 NOPK  =       1 NORDER=       0 SCHWRZ=       T

 ------------------------------------------
 MULTIREFERENCE PERTURBATION THEORY CONTROL
 ------------------------------------------
 MRPT=GMCPT    READ CONVERGED MCSCF VECTORS= F


     ------------------------------------------
     THE POINT GROUP IS C1 , NAXIS= 1, ORDER= 1
     ------------------------------------------

 -- VARIATIONAL SPACE WILL BE RESTRICTED TO PURE SPHERICAL HARMONICS ONLY --
 AFTER EXCLUDING CONTAMINANT COMBINATIONS FROM THE CARTESIAN GAUSSIAN BASIS
 SET, THE NUMBER OF SPHERICAL HARMONICS KEPT IN THE VARIATION SPACE IS   29

     DIMENSIONS OF THE SYMMETRY SUBSPACES ARE
 A   =   29

 ..... DONE SETTING UP THE RUN .....
 CPU     0: STEP CPU TIME=     0.03 TOTAL CPU TIME=          0.0 (      0.0 MIN)
 TOTAL WALL CLOCK TIME=          0.0 SECONDS, CPU UTILIZATION IS    75.00%

          ********************
          1 ELECTRON INTEGRALS
          ********************
 TIME TO DO   DIPOLE INTEGRALS=      0.01
 ...... END OF ONE-ELECTRON INTEGRALS ......
 CPU     0: STEP CPU TIME=     0.01 TOTAL CPU TIME=          0.0 (      0.0 MIN)
 TOTAL WALL CLOCK TIME=          0.0 SECONDS, CPU UTILIZATION IS    80.00%

          -------------
          GUESS OPTIONS
          -------------
          GUESS =MOREAD            NORB  =      29          NORDER=       0
          MIX   =       F          PRTMO =       F          PUNMO =       F
          TOLZ  = 1.0E-08          TOLE  = 1.0E-05
          SYMDEN=       F          PURIFY=       T

 INITIAL GUESS ORBITALS GENERATED BY MOREAD   ROUTINE.

 STATISTICS FOR GENERATION OF SYMMETRY ORBITAL -Q- MATRIX
 NUMBER OF CARTESIAN ATOMIC ORBITALS=         30
 NUMBER OF SPHERICAL CONTAMINANTS DROPPED=     1
 NUMBER OF LINEARLY DEPENDENT MOS DROPPED=     0
 TOTAL NUMBER OF MOS IN VARIATION SPACE=      29
 ORBITAL PURIFICATION WILL OCCUR

 SYMMETRIES FOR INITIAL GUESS ORBITALS FOLLOW.   BOTH SET(S).
     5 ORBITALS ARE OCCUPIED (    1 CORE ORBITALS).
     1=A        2=A        3=A        4=A        5=A        6=A        7=A   
     8=A        9=A       10=A       11=A       12=A       13=A       14=A   
    15=A       16=A       17=A       18=A       19=A       20=A       21=A   
    22=A       23=A       24=A       25=A       26=A       27=A       28=A   
    29=A   
 ...... END OF INITIAL ORBITAL SELECTION ......
 CPU     0: STEP CPU TIME=     0.00 TOTAL CPU TIME=          0.0 (      0.0 MIN)
 TOTAL WALL CLOCK TIME=          0.1 SECONDS, CPU UTILIZATION IS    66.67%

                    ----------------------
                    AO INTEGRAL TECHNOLOGY
                    ----------------------
     S,P,L SHELL ROTATED AXIS INTEGRALS, REPROGRAMMED BY
        KAZUYA ISHIMURA (IMS) AND JOSE SIERRA (SYNSTAR).
     S,P,D,L SHELL ROTATED AXIS INTEGRALS PROGRAMMED BY
        KAZUYA ISHIMURA (INSTITUTE FOR MOLECULAR SCIENCE).
     S,P,D,F,G SHELL TO TOTAL QUARTET ANGULAR MOMENTUM SUM 5,
        ERIC PROGRAM BY GRAHAM FLETCHER (ELORET AND NASA ADVANCED
        SUPERCOMPUTING DIVISION, AMES RESEARCH CENTER).
     S,P,D,F,G,L SHELL GENERAL RYS QUADRATURE PROGRAMMED BY
        MICHEL DUPUIS (PACIFIC NORTHWEST NATIONAL LABORATORY).

          --------------------
          2 ELECTRON INTEGRALS
          --------------------

 DIRECT SCF METHOD SKIPS INTEGRAL STORAGE ON DISK.
 DIRECT TRANSFORMATION SKIPS AO INTEGRAL STORAGE ON DISK.
  ...... END OF TWO-ELECTRON INTEGRALS .....
 STEP CPU TIME =     0.02 TOTAL CPU TIME =          0.1 (      0.0 MIN)
 TOTAL WALL CLOCK TIME=          0.1 SECONDS, CPU UTILIZATION IS    75.00%
 DDI: Creating Array [0] - 900 x 36 = 32400 words.
 DDI: Creating Array [1] - 21 x 288 = 6048 words.
 DDI: Creating Array [2] - 36 x 36 = 1296 words.
 DDI: Creating Array [3] - 465 x 36 = 16740 words.

          -----------------
          MCSCF CALCULATION
          -----------------

 ----- NUCLEAR ENERGY ----- =        11.6677168984

     -------------------------------------------------
     GMC-PT/GMC-QDPT or general MCSCF input parameters
     -------------------------------------------------
 # of frozen core orbs. =         0 ->         0
 # of doubly occ. orbs. =         1
 # of active      orbs. =         7
 # of virtual     orbs. =        21
 # of active electrons  =         7
 # of states in CI      =         3
 Highest state in CI    =         3
 kstate =  1 1 1
 avecoe =  0.333 0.333 0.333
 State symmetry           = A           
 Assigned symmetry number = 1

 <<<Act. MO sym.: 1111111

 <<<Division of 1-ext.:  0
 <<<Division of 2-ext.:  0

 *** Reference space

 Reference type: ORMAS (= Occupation restricted multiple active space)
 # of orbitals          =  7
 # of minimum electrons =  7
 # of maximum electrons =  7
 State symmetry    =    1 (input)
 2*Sz              =    1 (input)
 Spin multiplicity =    2 (input)
 Dimension of reference space =      1225  (from      3432 walks)

 Dimension of reference space =      1225  (from      1225 walks)

 <<<Ionized spaces for Ref-CI:
      0:         1225 /   -1-0:         1960 /  0-1-0:         2891

 EVALUATING EXCHANGE INTEGRALS FOR DIRECT INTEGRAL TRANSFORMATION
 SCHWARZ INEQUALITY OVERHEAD:       465 INTEGRALS, T=        0.01

     --------------------------------------------
     PARTIAL TWO ELECTRON INTEGRAL TRANSFORMATION
     --------------------------------------------

 NUMBER OF CORE MOLECULAR ORBITALS     =    1
 NUMBER OF OCCUPIED MOLECULAR ORBITALS =    8
 TOTAL NUMBER OF MOLECULAR ORBITALS    =   29
 TOTAL NUMBER OF ATOMIC ORBITALS       =   30
 THRESHOLD FOR KEEPING TRANSFORMED 2E- INTEGRALS = 1.000E-09

 -------------------------------     ------------------------------
 DISTRIBUTED DATA TRANSFORMATION     PROGRAM WRITTEN BY G. FLETCHER
 -------------------------------     ------------------------------

 THE DISTRIBUTED MEMORY REQUIRED FOR THIS STEP IS MEMDDI=         1 MWORDS
 CREATING DISTRIBUTED STORAGE FOR [VIR OCC|VIR OCC] INTEGRALS
 CREATING DISTRIBUTED STORAGE FOR [VIR OCC|OCC OCC] INTEGRALS
 CREATING DISTRIBUTED STORAGE FOR [OCC OCC|OCC OCC] INTEGRALS
 CREATING DISTRIBUTED STORAGE FOR [VIR VIR|OCC OCC] INTEGRALS
 FOR    1 PROCESSORS, THE REPLICATED MEMORY NEEDED IS       73700 WORDS.
 SCHWARZ INEQUALITY OVERHEAD:       465 INTEGRALS, T=        0.00

      DIRECT 4-INDEX TRANSFORMATION 
      SCHWARZ INEQUALITY TEST SKIPPED          0 INTEGRAL BLOCKS
 ----- FROZEN CORE ENERGY =       -47.7837362600
 ... END OF INTEGRAL TRANSFORMATION ...
 CPU     0: STEP CPU TIME=     0.22 TOTAL CPU TIME=          0.3 (      0.0 MIN)
 TOTAL WALL CLOCK TIME=          0.3 SECONDS, CPU UTILIZATION IS    93.33%

     --------------------------------     -----------------------------
     MCHF NEWTON-RAPHSON OPTIMIZATION     CODE WRITTEN BY MICHEL DUPUIS
     --------------------------------     -----------------------------
     PARALLEL VERSION WRITTEN BY G. FLETCHER (ELORET)
     NASA ADVANCED SUPERCOMPUTING DIVISION, AMES RESEARCH CENTER

 NUMBER OF INDEPENDENT ORBITAL ROTATION PARAMETERS =   175
 ..... DONE SOLVING NEWTON-RAPHSON EQUATIONS .....
 CPU     0: STEP CPU TIME=     0.75 TOTAL CPU TIME=          1.0 (      0.0 MIN)
 TOTAL WALL CLOCK TIME=          1.0 SECONDS, CPU UTILIZATION IS    99.04%
 ..... DONE WITH NTN-RPH ORBITAL ROTATIONS ..... 
 CPU     0: STEP CPU TIME=     0.00 TOTAL CPU TIME=          1.0 (      0.0 MIN)
 TOTAL WALL CLOCK TIME=          1.0 SECONDS, CPU UTILIZATION IS    99.04%
 MAXIMUM MEMORY USED BY NTN-RPH CODE WAS     57645 WORDS.

 ITER     TOTAL ENERGY      DEL(E)  LAGRANGIAN ASYMMETRY   SQCDF  MICIT   DAMP
   1      -55.671914439 -0.671914439  0.135305   14    4 1.625E-01  1   0.0000
   2      -55.709924216 -0.038009778  0.024065   12    5 4.514E-01  1   0.0000
   3      -55.742328440 -0.032404224  0.012194   12    5 2.117E-01  1   0.0258
   4      -55.755780389 -0.013451949  0.004128   11    6 3.727E-02  1   0.0044
   5      -55.757399448 -0.001619059  0.000725   12    5 1.045E-03  1   0.0000
   6      -55.757445722 -0.000046274  0.000238   12    5 8.148E-05  1   0.0000
   7      -55.757450134 -0.000004412  0.000107   12    5 1.128E-05  1   0.0000
   8      -55.757450791 -0.000000657  0.000047   12    5 1.775E-06  1   0.0000
   9      -55.757450899 -0.000000108  0.000020   12    5 3.078E-07  1   0.0000
  10      -55.757450918 -0.000000019  0.000008   12    5 6.041E-08  1   0.0000
  11      -55.757450922 -0.000000004  0.000004   22    5 1.379E-08  1   0.0000
  12      -55.757450923 -0.000000001  0.000002   12    7 3.607E-09  1   0.0000
  13      -55.757450924 -0.000000000  0.000001   12    7 1.043E-09  1   0.0000
  14      -55.757450924 -0.000000000  0.000001   12    7 3.216E-10  1   0.0000

          --------------------
          LAGRANGIAN CONVERGED
          --------------------

 FINAL MCSCF ENERGY IS      -55.7574509236 AFTER  14 ITERATIONS

 -MCCI- BASED ON OPTIMIZED ORBITALS
 ----------------------------------

 PLEASE NOTE: IF THE ACTIVE ORBITALS ARE CANONICALIZED BELOW,
 THE FOLLOWING CI EXPANSION COEFFICIENTS AND THE DENSITY DO NOT
 CORRESPOND TO THE PRINTED ORBITALS.  THE PRINTED EXPANSIONS MATCH
 THE ORBITALS USED DURING THE LAST ITERATION.  IF YOU WISH TO SEE
 CI EXPANSIONS BASED ON THE CANONICAL (OR NATURAL) ORBITALS, YOU
 MUST RUN A CI CALCULATION WITH THAT ORBITAL CHOICE READ IN $VEC.

 Averaged energy =     -55.757450924

 State #    1  Energy =     -55.899300253  S =  0.500

      Det      Coef    Occupancy (Ignoring core)
      ---      ----    --------- --------- -----
        1    0.946654  11110001110000
        2    0.055031  11101001110000
        5   -0.061150  01111001110000
        8   -0.123431  10110101110000
       17    0.132121  11010011110000
       71   -0.115993  11110001011000
      386    0.090891  11110001010010
      393    0.069207  10110101010010
      701   -0.109282  11110001100001
      717    0.050667  11010011100001

 State #    2  Energy =     -55.730459805  S =  0.500

      Det      Coef    Occupancy (Ignoring core)
      ---      ----    --------- --------- -----
        1    0.107050  11110001110000
       36    0.226877  11110001101000
       71    0.935491  11110001011000
       75   -0.054581  01111001011000
       78   -0.063799  10110101011000
       87    0.095578  11010011011000
      316    0.054107  11110000011100
      806    0.097201  11110001001001
      822   -0.053030  11010011001001

 State #    3  Energy =     -55.642592713  S =  0.500

      Det      Coef    Occupancy (Ignoring core)
      ---      ----    --------- --------- -----
       36    0.943474  11110001101000
       43   -0.075311  10110101101000
       52    0.065831  11010011101000
       71   -0.223627  11110001011000
      281    0.064709  11110000101100
      456    0.091317  11110001001010
      463    0.070795  10110101001010

 DENSITY MATRIX OVER ACTIVE MO-S

             1           2           3           4           5

    1    1.9791811
    2    0.0098385   1.6365179
    3    0.0010946   0.0000419   1.6362457
    4    0.0031484   0.0012711  -0.0001222   1.6554329
    5    0.0956194  -0.0118437  -0.0001640   0.0418318   0.0246609
    6   -0.0018716  -0.1315432  -0.0065970   0.0177686   0.0025388
    7   -0.0029201  -0.0052174  -0.1504308   0.0015883  -0.0004418

             6           7

    6    0.0350059
    7   -0.0000249   0.0329556

 FORMING THE "STANDARD FOCK OPERATOR" IN DIRECT AO INTEGRAL MODE...
 ONLY THE    1 CORE AND   21 VIRTUAL ORBITALS WILL BE CANONICALIZED

          ----------------------
          MCSCF NATURAL ORBITALS
          ----------------------

                      1          2          3          4          5
                  -15.9866     1.9842     1.6567     1.6505     1.6468
                     A          A          A          A          A   
    1  N  1  S    1.001308   0.008642  -0.011025  -0.000877  -0.001577
    2  N  1  S   -0.001795   0.438686  -0.179551  -0.034736  -0.043990
    3  N  1  S   -0.006366   0.288272  -0.282780  -0.048314  -0.065255
    4  N  1  X   -0.000011   0.024192  -0.067703   0.122971   0.498918
    5  N  1  Y   -0.000043   0.005009  -0.042858   0.470620  -0.132987
    6  N  1  Z    0.001156   0.096700   0.591519   0.048492   0.027874
    7  N  1  X    0.000053  -0.003826  -0.051092   0.046941   0.240193
    8  N  1  Y    0.000005  -0.000070  -0.021588   0.174660  -0.062409
    9  N  1  Z   -0.000442   0.006063   0.382881   0.022539   0.000590
   10  N  1 XX   -0.000138  -0.001267  -0.012922   0.001999   0.012461
   11  N  1 YY    0.000325   0.000169  -0.011311  -0.004328  -0.013911
   12  N  1 ZZ   -0.000187   0.001097   0.024233   0.002329   0.001449
   13  N  1 XY    0.000104   0.000683   0.000389  -0.006213   0.002307
   14  N  1 XZ    0.000108   0.000972  -0.000542   0.006650   0.025066
   15  N  1 YZ    0.000018   0.000671  -0.001600   0.022602  -0.006205
   16  H  2  S   -0.001966   0.185548   0.093258   0.290489  -0.239465
   17  H  2  S    0.000479   0.001254   0.025132   0.036917  -0.046243
   18  H  2  X   -0.000334   0.010871   0.004286   0.020226   0.009923
   19  H  2  Y    0.000938  -0.033734  -0.014588  -0.023209   0.024142
   20  H  2  Z    0.000436  -0.007869   0.020037  -0.011634   0.011968
   21  H  3  S   -0.002065   0.183003   0.137356  -0.355641  -0.073642
   22  H  3  S    0.000562   0.000706   0.029062  -0.042767  -0.015736
   23  H  3  X   -0.000422   0.014377   0.006527  -0.014676   0.017058
   24  H  3  Y   -0.000979   0.033756   0.017350  -0.030040  -0.011436
   25  H  3  Z    0.000416  -0.005922   0.017876   0.017438   0.004334
   26  H  4  S   -0.001999   0.206412   0.088638   0.114921   0.366054
   27  H  4  S    0.000350   0.006879   0.020614   0.014594   0.068157
   28  H  4  X    0.000942  -0.035524  -0.017908  -0.010579  -0.027620
   29  H  4  Y    0.000068  -0.003194  -0.001452   0.020971  -0.008030
   30  H  4  Z    0.000481  -0.013277   0.019890  -0.004287  -0.019210

                      6          7          8
                    0.0245     0.0188     0.0185
                     A          A          A   
    1  N  1  S   -0.076644   0.111493  -0.221700
    2  N  1  S   -0.237717   0.368407  -0.701111
    3  N  1  S    0.013146   0.111273  -0.121840
    4  N  1  X    0.814909   0.265086  -0.114615
    5  N  1  Y   -0.154773   0.784295   0.511543
    6  N  1  Z   -0.085514   0.374980  -0.568434
    7  N  1  X    0.007042   0.037862  -0.030478
    8  N  1  Y   -0.000703   0.068707   0.030027
    9  N  1  Z    0.022713  -0.046907   0.087697
   10  N  1 XX   -0.031976   0.013097  -0.017482
   11  N  1 YY    0.033210  -0.006457   0.011771
   12  N  1 ZZ   -0.001234  -0.006641   0.005711
   13  N  1 XY    0.000132  -0.030299  -0.005001
   14  N  1 XZ   -0.022550  -0.023916   0.022377
   15  N  1 YZ    0.006381  -0.047940  -0.021530
   16  H  2  S    0.560207  -0.668003   0.043149
   17  H  2  S    0.108028  -0.110330  -0.028110
   18  H  2  X    0.000357  -0.042543   0.008559
   19  H  2  Y   -0.056367   0.064017  -0.024172
   20  H  2  Z   -0.007029  -0.015560   0.008902
   21  H  3  S    0.345260   0.340927   0.750072
   22  H  3  S    0.056849   0.085179   0.105956
   23  H  3  X   -0.002442   0.008882   0.041999
   24  H  3  Y    0.037628   0.017091   0.080977
   25  H  3  Z   -0.004020  -0.000036   0.014727
   26  H  4  S   -0.586675  -0.443812   0.480597
   27  H  4  S   -0.134560  -0.063045   0.062450
   28  H  4  X    0.036715   0.052255  -0.064529
   29  H  4  Y    0.007641  -0.030035  -0.019877
   30  H  4  Z    0.014510  -0.006351   0.005228

          ------------------------
          MCSCF OPTIMIZED ORBITALS
          ------------------------

                      1          2          3          4          5
                  -15.9866     0.0000     0.0000     0.0000     0.0000
                     A          A          A          A          A   
    1  N  1  S    1.001308  -0.003660   0.003579   0.002293  -0.017856
    2  N  1  S   -0.001795   0.402230  -0.013292  -0.002189  -0.198757
    3  N  1  S   -0.006366   0.286552  -0.049759  -0.009716  -0.287646
    4  N  1  X   -0.000011   0.007068   0.446322  -0.017113  -0.022207
    5  N  1  Y   -0.000043   0.000707  -0.003299   0.400781  -0.008158
    6  N  1  Z    0.001156   0.053258  -0.000732  -0.001487   0.578634
    7  N  1  X    0.000053  -0.012081   0.244723  -0.018861  -0.035034
    8  N  1  Y    0.000005  -0.001031  -0.012605   0.178592  -0.009738
    9  N  1  Z   -0.000442   0.005124  -0.022339  -0.005359   0.385421
   10  N  1 XX   -0.000138  -0.002786   0.015659  -0.001191  -0.013027
   11  N  1 YY    0.000325   0.001720  -0.016146   0.000823  -0.011527
   12  N  1 ZZ   -0.000187   0.001066   0.000488   0.000368   0.024554
   13  N  1 XY    0.000104   0.001310   0.001178  -0.004039   0.000168
   14  N  1 XZ    0.000108   0.001539   0.028057  -0.000172   0.001712
   15  N  1 YZ    0.000018   0.001062   0.000868   0.028220   0.000145
   16  H  2  S   -0.001966   0.211558  -0.182535   0.393875   0.124024
   17  H  2  S    0.000479   0.004538  -0.042176   0.057599   0.027897
   18  H  2  X   -0.000334   0.011753   0.015779   0.019113   0.007286
   19  H  2  Y    0.000938  -0.037025   0.020121  -0.032337  -0.017753
   20  H  2  Z    0.000436  -0.007612   0.007490  -0.015175   0.019652
   21  H  3  S   -0.002065   0.211092  -0.207780  -0.387397   0.122714
   22  H  3  S    0.000562   0.003709  -0.035275  -0.049565   0.026682
   23  H  3  X   -0.000422   0.015397   0.012168  -0.021959   0.007104
   24  H  3  Y   -0.000979   0.037243  -0.022920  -0.031511   0.016704
   25  H  3  Z    0.000416  -0.005966   0.007638   0.013399   0.019658
   26  H  4  S   -0.001999   0.218762   0.434632   0.004119   0.125657
   27  H  4  S    0.000350   0.007416   0.079573  -0.006587   0.025257
   28  H  4  X    0.000942  -0.037927  -0.032763  -0.001515  -0.022000
   29  H  4  Y    0.000068  -0.003132  -0.001921   0.025719  -0.000121
   30  H  4  Z    0.000481  -0.012467  -0.022376   0.000196   0.018582

                      6          7          8          9         10
                    0.0000     0.0000     0.0000     0.1534     0.1997
                     A          A          A          A          A   
    1  N  1  S    0.257288  -0.027333  -0.018999  -0.156144  -0.012719
    2  N  1  S    0.837704  -0.077752  -0.048456  -0.241419  -0.025843
    3  N  1  S    0.163340   0.051143   0.018426   1.547254   0.057395
    4  N  1  X    0.058455   0.901703  -0.012999  -0.029738  -0.015658
    5  N  1  Y    0.019801   0.041638   0.989419  -0.005125  -0.108983
    6  N  1  Z    0.702020   0.054082  -0.000078  -0.232174  -0.028687
    7  N  1  X    0.040198   0.039700   0.011091   0.109150   0.266622
    8  N  1  Y    0.011058   0.016619   0.089114   0.038522   0.680533
    9  N  1  Z   -0.091661  -0.003161   0.005930   0.534983   0.080190
   10  N  1 XX    0.027465  -0.024473   0.007085  -0.018962   0.035510
   11  N  1 YY   -0.020196   0.028131  -0.005189   0.065571  -0.042552
   12  N  1 ZZ   -0.007269  -0.003658  -0.001896  -0.046609   0.007042
   13  N  1 XY   -0.011696  -0.008040  -0.027689   0.019696  -0.049824
   14  N  1 XZ   -0.026389  -0.027593  -0.002173   0.036484   0.045927
   15  N  1 YZ   -0.008586  -0.005859  -0.049482   0.010925   0.097726
   16  H  2  S   -0.488558   0.331885  -0.591051   0.298562   0.228265
   17  H  2  S   -0.056001   0.070864  -0.121302  -0.925248  -0.916204
   18  H  2  X   -0.028798  -0.010948  -0.027798  -0.007093  -0.037713
   19  H  2  Y    0.062976  -0.032800   0.046408   0.104192   0.046057
   20  H  2  Z   -0.013960  -0.011394  -0.007584   0.024951   0.064510
   21  H  3  S   -0.499709   0.360047   0.591687   0.312432  -0.534148
   22  H  3  S   -0.053897   0.068508   0.112297  -0.905848   1.877110
   23  H  3  X   -0.028744  -0.001701   0.029283  -0.038486   0.032143
   24  H  3  Y   -0.063550   0.033607   0.048852  -0.104305   0.089425
   25  H  3  Z   -0.011208  -0.004360   0.010294   0.005351  -0.076233
   26  H  4  S   -0.496024  -0.685749   0.030558   0.170555   0.270540
   27  H  4  S   -0.055966  -0.144907   0.010639  -0.706032  -0.977191
   28  H  4  X    0.070867   0.051738  -0.001653   0.094122   0.045671
   29  H  4  Y   -0.001033   0.000071  -0.034584   0.029950  -0.023154
   30  H  4  Z   -0.010668   0.009770  -0.005177   0.049870   0.044816

                     11         12         13         14         15
                    0.2055     0.5409     0.5874     0.6288     0.8046
                     A          A          A          A          A   
    1  N  1  S    0.024596   0.048381  -0.010819   0.093167  -0.147447
    2  N  1  S    0.046559   0.045617  -0.088549   0.332303  -0.335371
    3  N  1  S   -0.171464  -0.409773  -0.236986   0.107208   0.630990
    4  N  1  X    0.003312  -0.582980   0.139500  -0.153773  -0.009728
    5  N  1  Y   -0.045977  -0.003259  -0.435522  -0.216327  -0.094145
    6  N  1  Z    0.040876   0.319572   0.279013  -0.549672   0.113831
    7  N  1  X   -0.393802   1.527731  -0.424808   0.735833   0.067621
    8  N  1  Y    0.339348   0.094857   1.658868   1.012930   0.573751
    9  N  1  Z   -0.112760  -0.425360  -0.468794   0.953332  -0.000494
   10  N  1 XX   -0.071777   0.019744   0.004558  -0.011950   0.031264
   11  N  1 YY    0.074808  -0.004413   0.021834  -0.045950   0.001226
   12  N  1 ZZ   -0.003032  -0.015332  -0.026393   0.057900  -0.032490
   13  N  1 XY   -0.036435   0.009384   0.058397   0.006477  -0.159674
   14  N  1 XZ   -0.071187   0.039133   0.004355  -0.030082  -0.006996
   15  N  1 YZ    0.047082   0.002033   0.005930  -0.022387  -0.123418
   16  H  2  S    0.512354   0.337549  -0.401215  -0.652122  -0.116785
   17  H  2  S   -1.684439   0.523423  -0.802660  -0.060056  -0.299597
   18  H  2  X   -0.011524   0.054042   0.086834   0.000163  -0.418127
   19  H  2  Y    0.066795  -0.036699   0.169800   0.053395   0.134023
   20  H  2  Z    0.041020  -0.074948   0.002496   0.008442  -0.229282
   21  H  3  S    0.041946   0.435908   0.719659   0.037138   0.098220
   22  H  3  S   -0.017710   0.537922   0.503042   0.657695   0.058046
   23  H  3  X    0.045252   0.047670  -0.067202   0.029013   0.233320
   24  H  3  Y    0.001706   0.053987   0.134494   0.146264   0.053027
   25  H  3  Z   -0.017182  -0.068559  -0.034609   0.074550   0.263008
   26  H  4  S   -0.536485  -0.252332   0.341203  -0.718995  -0.005573
   27  H  4  S    1.852338  -0.926126   0.272673  -0.282289  -0.121451
   28  H  4  X   -0.085200   0.110541  -0.022263   0.045763   0.146113
   29  H  4  Y   -0.018973   0.046420   0.094180  -0.006451  -0.476612
   30  H  4  Z   -0.052483   0.073021  -0.050980   0.030477  -0.042321

                     16         17         18         19         20
                    0.9634     0.9935     1.3168     1.4706     1.5216
                     A          A          A          A          A   
    1  N  1  S   -0.539812  -0.154823   0.014992  -0.527828  -0.280903
    2  N  1  S   -1.146499  -0.327886   0.030754  -1.092848  -0.567578
    3  N  1  S    2.316278   0.823854  -0.051533   2.014990   1.240125
    4  N  1  X   -0.054909  -0.055611   0.024480  -0.010968   0.100456
    5  N  1  Y   -0.019914   0.021976  -0.197180  -0.000695  -0.027605
    6  N  1  Z    0.169363   0.059224   0.005345  -0.031198   0.009185
    7  N  1  X    0.253511   0.393746   0.006045  -0.226116   0.655741
    8  N  1  Y    0.072184  -0.131821   0.785716  -0.283908   0.471063
    9  N  1  Z   -0.048813   0.263116  -0.003381   0.824436   0.576133
   10  N  1 XX   -0.124674   0.178759  -0.004802   0.129429   0.001229
   11  N  1 YY   -0.090749  -0.101082  -0.000616   0.132828   0.045089
   12  N  1 ZZ    0.215423  -0.077677   0.005418  -0.262257  -0.046318
   13  N  1 XY    0.023303   0.048583  -0.074166  -0.006963   0.020762
   14  N  1 XZ   -0.034305  -0.230959  -0.013426   0.016640  -0.125096
   15  N  1 YZ    0.002509   0.059748   0.015070   0.013845  -0.009624
   16  H  2  S   -0.341351  -0.033453  -0.355179  -0.476942  -0.460249
   17  H  2  S   -0.298151  -0.018317  -0.131496  -0.112262  -0.065491
   18  H  2  X    0.073625  -0.262252  -0.465358   0.329856  -0.242507
   19  H  2  Y   -0.034916  -0.083154  -0.423458   0.115035  -0.083782
   20  H  2  Z    0.347722   0.212341   0.321869  -0.422487  -0.274201
   21  H  3  S   -0.279171  -0.118899   0.356802  -0.694645  -0.091503
   22  H  3  S   -0.313873  -0.105609   0.163434  -0.260103   0.083865
   23  H  3  X    0.000114  -0.438364   0.475473   0.385628  -0.448009
   24  H  3  Y    0.021205   0.084117  -0.397116  -0.078719  -0.001578
   25  H  3  Z    0.300672   0.053953  -0.292832  -0.182829  -0.750717
   26  H  4  S   -0.427903  -0.238313   0.016048  -0.477691  -0.536401
   27  H  4  S   -0.332273  -0.229615  -0.008220  -0.140423  -0.336434
   28  H  4  X   -0.107478   0.358211   0.050274   0.128364   0.021777
   29  H  4  Y    0.054969   0.103556   0.255381   0.291751  -0.289716
   30  H  4  Z    0.313520  -0.455834  -0.005148  -0.377209   0.473355

                     21         22         23         24         25
                    1.6038     1.8383     1.8867     2.0325     2.2006
                     A          A          A          A          A   
    1  N  1  S   -0.067983   0.089805  -0.017090   0.099933   0.115185
    2  N  1  S   -0.140736   0.172958  -0.022663   0.326991   0.238886
    3  N  1  S    0.218544  -0.518024   0.135127   1.655297  -0.269852
    4  N  1  X   -0.172825   0.406416   0.015619   0.099950   0.086763
    5  N  1  Y    0.039724   0.116153   0.607098   0.000664   0.081770
    6  N  1  Z   -0.019009   0.029144   0.026178   0.357525   0.033760
    7  N  1  X   -0.244023  -0.207440   0.047612  -0.200452  -0.100112
    8  N  1  Y    0.812599   0.110784   0.061801  -0.001503   0.022904
    9  N  1  Z    0.084107  -0.197188   0.071267   0.682210  -0.425330
   10  N  1 XX    0.069252  -0.268646  -0.016292  -0.048288   0.781319
   11  N  1 YY    0.011725   0.158444  -0.030389  -0.235201  -0.016261
   12  N  1 ZZ   -0.080977   0.110201   0.046680   0.283489  -0.765058
   13  N  1 XY    0.004263   0.036211   0.287889  -0.036237  -0.304257
   14  N  1 XZ    0.122377  -0.112064   0.011993  -0.187501  -0.464616
   15  N  1 YZ   -0.105676  -0.038848  -0.180435   0.026781  -0.140939
   16  H  2  S   -0.315462   0.050795  -0.002440  -0.449478   0.078591
   17  H  2  S   -0.307373   0.241237  -0.396079  -0.309761  -0.034375
   18  H  2  X    0.378429   0.355632  -0.480867   0.142029   0.303549
   19  H  2  Y    0.104598  -0.366768   0.654645   0.839605   0.101945
   20  H  2  Z    0.616997   0.147759   0.324832  -0.048900   0.355101
   21  H  3  S    0.209294   0.085242  -0.054877  -0.463473   0.126758
   22  H  3  S    0.082869   0.329559   0.308051  -0.340510   0.080358
   23  H  3  X    0.107894   0.286895   0.371261  -0.032068   0.186573
   24  H  3  Y   -0.196397   0.476357   0.509661  -0.870523   0.073520
   25  H  3  Z   -0.350394  -0.097979  -0.393182  -0.095444   0.144997
   26  H  4  S   -0.081206   0.285148  -0.045499  -0.401400   0.129014
   27  H  4  S    0.175165  -0.388573   0.032571  -0.182886  -0.035742
   28  H  4  X   -0.100918   0.829811  -0.058506   0.687147  -0.125310
   29  H  4  Y   -0.723004  -0.187341   0.202976   0.099601   0.125466
   30  H  4  Z   -0.374816   0.166612   0.028859   0.179784   0.663748

                     26         27         28         29
                    2.3490     2.5527     2.7358     2.9788
                     A          A          A          A   
    1  N  1  S    0.036765  -0.036597  -0.032308   0.026336
    2  N  1  S    0.050806   0.072514  -0.066115   0.095794
    3  N  1  S   -0.454887   2.176101  -0.036748   0.479758
    4  N  1  X   -0.037918   0.202830   0.033101  -0.569128
    5  N  1  Y   -0.094652  -0.019929   0.627000  -0.017482
    6  N  1  Z   -0.052471   0.330342  -0.013491   0.047145
    7  N  1  X   -0.261325   0.651979   0.099541  -0.924204
    8  N  1  Y    0.235126   0.128746   1.462329  -0.036859
    9  N  1  Z   -0.208435   0.512186   0.034399  -0.032405
   10  N  1 XX    0.224025   0.104692  -0.042791  -1.012512
   11  N  1 YY   -0.177109   0.610331  -0.011760   1.344040
   12  N  1 ZZ   -0.046916  -0.715024   0.054551  -0.331528
   13  N  1 XY    0.916157   0.363442  -0.698276  -0.033761
   14  N  1 XZ   -0.395067   0.781359   0.066226  -0.795368
   15  N  1 YZ    0.541032   0.212882   1.209399   0.013019
   16  H  2  S    0.074381  -0.632267  -1.105040  -0.842248
   17  H  2  S    0.015851  -0.104288  -0.440197  -0.278075
   18  H  2  X   -0.083710  -0.404800  -0.167274  -0.207816
   19  H  2  Y   -0.139949   0.223782   0.783959   0.681759
   20  H  2  Z   -0.272125   0.344275   0.230428   0.420962
   21  H  3  S    0.124033  -0.602745   1.199533  -0.846253
   22  H  3  S    0.003904  -0.119796   0.472413  -0.264975
   23  H  3  X    0.523999  -0.319467   0.268603  -0.267507
   24  H  3  Y   -0.187751  -0.321483   0.847692  -0.607674
   25  H  3  Z    0.241177   0.467866  -0.220315   0.373051
   26  H  4  S    0.237956  -1.154716  -0.057510   1.131787
   27  H  4  S    0.137532  -0.457835  -0.002067   0.392086
   28  H  4  X   -0.177014   0.754460  -0.001622  -0.848885
   29  H  4  Y   -0.562180  -0.044564  -0.159338  -0.092465
   30  H  4  Z    0.107499   0.482444  -0.026622  -0.472297
 .....DONE WITH MCSCF ITERATIONS.....
 CPU     0: STEP CPU TIME=     8.59 TOTAL CPU TIME=          9.6 (      0.2 MIN)
 TOTAL WALL CLOCK TIME=          9.6 SECONDS, CPU UTILIZATION IS    99.79%

     ----------------------------------------------------------------
     PROPERTY VALUES FOR THE MCSCF SELF-CONSISTENT FIELD WAVEFUNCTION
     ----------------------------------------------------------------

          -----------------
          ENERGY COMPONENTS
          -----------------

         WAVEFUNCTION NORMALIZATION =       1.0000000000

                ONE ELECTRON ENERGY =     -94.7530647918
                TWO ELECTRON ENERGY =      27.3278969698
           NUCLEAR REPULSION ENERGY =      11.6677168984
                                      ------------------
                       TOTAL ENERGY =     -55.7574509236

 ELECTRON-ELECTRON POTENTIAL ENERGY =      27.3278969698
  NUCLEUS-ELECTRON POTENTIAL ENERGY =    -150.6501999338
   NUCLEUS-NUCLEUS POTENTIAL ENERGY =      11.6677168984
                                      ------------------
             TOTAL POTENTIAL ENERGY =    -111.6545860657
               TOTAL KINETIC ENERGY =      55.8971351420
                 VIRIAL RATIO (V/T) =       1.9975010487

          ---------------------------------------
          MULLIKEN AND LOWDIN POPULATION ANALYSES
          ---------------------------------------

     ATOMIC MULLIKEN POPULATION IN EACH MOLECULAR ORBITAL

                      1          2          3          4          5

                  2.000000   1.984200   1.656681   1.650513   1.646773

    1             2.000990   1.303749   1.542646   0.926808   1.052002
    2            -0.000308   0.212574   0.028692   0.269532   0.179974
    3            -0.000342   0.205672   0.054591   0.404905   0.024754
    4            -0.000341   0.262205   0.030752   0.049268   0.390044

                      6          7          8

                  0.024529   0.018824   0.018480

    1             0.012034   0.010198   0.009796
    2             0.005174   0.005171  -0.000063
    3             0.001964   0.001191   0.006227
    4             0.005358   0.002265   0.002519
 WARNING! MCSCF POPULATIONS SHOWN ABOVE ARE FOR THE NATURAL ORBITALS.
 IGNORE THE ABOVE DATA FOR MCSCF FUNCTIONS WHICH ARE NOT OF -FORS- TYPE.
 THE FOLLOWING POPULATIONS ARE CORRECT FOR ANY MCSCF WAVEFUNCTION.

               ----- POPULATIONS IN EACH AO -----
                             MULLIKEN      LOWDIN
              1  N  1  S      2.00271     1.89479
              2  N  1  S      0.82693     0.57620
              3  N  1  S      0.62629     0.39129
              4  N  1  X      0.70979     0.64339
              5  N  1  Y      0.67120     0.58993
              6  N  1  Z      0.88681     0.82865
              7  N  1  X      0.33696     0.41314
              8  N  1  Y      0.26099     0.37898
              9  N  1  Z      0.51770     0.55470
             10  N  1 XX      0.00056     0.15809
             11  N  1 YY      0.00453     0.18293
             12  N  1 ZZ      0.00098     0.14203
             13  N  1 XY      0.00643     0.00465
             14  N  1 XZ      0.00634     0.01165
             15  N  1 YZ      0.00000     0.01234
             16  H  2  S      0.60703     0.47143
             17  H  2  S      0.03604     0.14294
             18  H  2  X      0.01091     0.02377
             19  H  2  Y      0.03276     0.05468
             20  H  2  Z      0.01400     0.03622
             21  H  3  S      0.61031     0.47486
             22  H  3  S      0.03059     0.14215
             23  H  3  X      0.01206     0.02457
             24  H  3  Y      0.03281     0.05597
             25  H  3  Z      0.01319     0.03588
             26  H  4  S      0.63818     0.49471
             27  H  4  S      0.04404     0.14147
             28  H  4  X      0.03244     0.05535
             29  H  4  Y      0.01004     0.02048
             30  H  4  Z      0.01737     0.04277

          ----- MULLIKEN ATOMIC OVERLAP POPULATIONS -----
          (OFF-DIAGONAL ELEMENTS NEED TO BE MULTIPLIED BY 2)

             1           2           3           4

    1    5.9258941
    2    0.3070334   0.4060131
    3    0.3169231  -0.0059278   0.3931033
    4    0.3083731  -0.0063724  -0.0051375   0.4452058

          TOTAL MULLIKEN AND LOWDIN ATOMIC POPULATIONS
       ATOM         MULL.POP.    CHARGE          LOW.POP.     CHARGE
    1 N             6.858224    0.141776         6.782752    0.217248
    2 H             0.700746    0.299254         0.729037    0.270963
    3 H             0.698961    0.301039         0.733430    0.266570
    4 H             0.742069    0.257931         0.754781    0.245219

          MULLIKEN SPHERICAL HARMONIC POPULATIONS
       ATOM           S       P       D      F      G      H      I    TOTAL
    1 N             3.46    3.38    0.02   0.00   0.00   0.00   0.00    6.86
    2 H             0.64    0.06    0.00   0.00   0.00   0.00   0.00    0.70
    3 H             0.64    0.06    0.00   0.00   0.00   0.00   0.00    0.70
    4 H             0.68    0.06    0.00   0.00   0.00   0.00   0.00    0.74

          ---------------------
          ELECTROSTATIC MOMENTS
          ---------------------

 POINT   1           X           Y           Z (BOHR)    CHARGE
                 0.000002    0.000001   -0.177185        1.00 (A.U.)
         DX          DY          DZ         /D/  (DEBYE)
     0.311099    0.107855    2.145429    2.170548
 ...... END OF PROPERTY EVALUATION ......
 CPU     0: STEP CPU TIME=     0.01 TOTAL CPU TIME=          9.6 (      0.2 MIN)
 TOTAL WALL CLOCK TIME=          9.6 SECONDS, CPU UTILIZATION IS    99.90%

     -------------------------------------------------
     GMC-PT/GMC-QDPT or general MCSCF input parameters
     -------------------------------------------------
 # of frozen core orbs. =         0 ->         0
 # of doubly occ. orbs. =         1
 # of active      orbs. =         7
 # of virtual     orbs. =        21
 # of active electrons  =         7
 # of states in CI      =         3
 Highest state in CI    =         3
 kstate =  1 1 1
 avecoe =  0.333 0.333 0.333
 State symmetry           = A           
 Assigned symmetry number = 1

 <<<Act. MO sym.: 1111111

 <<<Division of 1-ext.:  0
 <<<Division of 2-ext.:  0

     ------------------------
     Orbital canonicalization
     ------------------------

 MOs are canonicalized for core, virtual, and invariant-active orbital spaces.
 This is a part of the GMC-QDPT calculation.
 SCHWARZ INEQUALITY OVERHEAD:       465 INTEGRALS, T=        0.00
 DIRECT TRANSFORMATION SKIPS AO INTEGRAL STORAGE ON DISK.

 Averaged energy =     -55.757450924

 State #    1  Energy =     -55.899300253  S =  0.500
 State #    2  Energy =     -55.730459805  S =  0.500
 State #    3  Energy =     -55.642592713  S =  0.500

 Orbital energies for filled orbital space
  -15.986631
 Orbital energies for active orbital space
   -1.531399  -0.888326  -0.979952  -0.756190   0.413167
    0.286139   0.416935
 Orbital energies for external orbital space
    0.153361   0.199691   0.205500   0.540939   0.587400
    0.628849   0.804627   0.963431   0.993517   1.316770
    1.470550   1.521554   1.603837   1.838340   1.886743
    2.032484   2.200583   2.349025   2.552691   2.735829
    2.978841

 Zero values mean non-canonical orbitals.
 ... done with orbital canonicalization ...
 CPU     0: STEP CPU TIME=     0.58 TOTAL CPU TIME=         10.2 (      0.2 MIN)
 TOTAL WALL CLOCK TIME=         10.2 SECONDS, CPU UTILIZATION IS    99.90%

     --------------------------------------------
     PARTIAL TWO ELECTRON INTEGRAL TRANSFORMATION
     --------------------------------------------

 NUMBER OF CORE MOLECULAR ORBITALS     =    0
 NUMBER OF OCCUPIED MOLECULAR ORBITALS =    8
 TOTAL NUMBER OF MOLECULAR ORBITALS    =   29
 TOTAL NUMBER OF ATOMIC ORBITALS       =   30
 THRESHOLD FOR KEEPING TRANSFORMED 2E- INTEGRALS = 1.000E-09
 AO INTEGRALS WILL BE CALCULATED IN DIRECT MODE...
 DIRECT TRANSFORMATION SKIPS AO INTEGRAL STORAGE ON DISK.
 SCHWARZ INEQUALITY OVERHEAD:       465 INTEGRALS, T=        0.00

 PLAN A: REQUIREMENTS FOR FULLY IN-MEMORY TRANSFORMATION:
 # OF WORDS AVAILABLE =            100000000
 # OF WORDS NEEDED    =               221798

 PARALLEL ONLY WORKS WITH THE SEGMENTED ALGORITHM.
 ADJUSTING MEMORY TO USE SEGMENTED ALGORITHM.


 PLAN B: REQUIREMENTS FOR THE SEGMENTED TRANSFORMATION:
       MINIMUM=         124148 WORDS FOR 1 MOLECULAR ORBITAL PER PASS
       MAXIMUM=         221798 WORDS FOR ALL MOLECULAR ORBITALS IN 1 PASS
              (          13950 EXTRA WORDS INCLUDES 1 EXTRA ORBITAL/PASS)
 THIS RUN USES=         221798 WORDS,
 DISTRIBUTING   1 PASSES EACH CONTAINING     8 ORBITALS OVER   1 PROCESSORS.

 CHOOSING SEGMENTED PARTIAL TRANSFORMATION...
 DIRECT TRANSFORMATION SKIPS AO INTEGRAL STORAGE ON DISK.
 PASS #   1 TOOK        0.05 SECONDS.
 TOTAL NUMBER OF TRANSFORMED 2E- INTEGRALS KEPT =        29226
 ... END OF INTEGRAL TRANSFORMATION ...
 CPU     0: STEP CPU TIME=     0.05 TOTAL CPU TIME=         10.3 (      0.2 MIN)
 TOTAL WALL CLOCK TIME=         10.3 SECONDS, CPU UTILIZATION IS   100.00%

     --------     ------------------------------------------
     GMC-QDPT     Program written by H.Nakano (Kyushu Univ.)
     --------     ------------------------------------------

 *** Reference space

 Reference type: ORMAS (= Occupation restricted multiple active space)
 # of orbitals          =  7
 # of minimum electrons =  7
 # of maximum electrons =  7
 State symmetry    =    1 (input)
 2*Sz              =    1 (input)
 Spin multiplicity =    2 (input)
 Dimension of reference space =      1225  (from      3432 walks)

 Dimension of reference space =      1225  (from      1225 walks)

 <<<Ionized spaces for Ref-CI:
      0:         1225 /   -1-0:         1960 /  0-1-0:         2891

 ***                    ***
 *** Reference space CI ***
 ***                    ***

 Converged after   30 iterations

 Reference wavefunctions:

 State #    1  Energy =     -55.899300253  S =  0.500

      Det      Coef    Occupancy (Ignoring core)
      ---      ----    --------- --------- -----
        1    0.979177  11110001110000
      393    0.070737  10110101010010
      717    0.061800  11010011100001

 State #    2  Energy =     -55.730459805  S =  0.500

      Det      Coef    Occupancy (Ignoring core)
      ---      ----    --------- --------- -----
       71    0.983732  11110001011000
      822   -0.061803  11010011001001

 State #    3  Energy =     -55.642592713  S =  0.500

      Det      Coef    Occupancy (Ignoring core)
      ---      ----    --------- --------- -----
       36    0.981870  11110001101000
      463    0.070877  10110101001010

 Davidson method: CPU/Wall time =           0.42 /           0.42 sec.

 Oscillator strength (invalid if E(1)/=E(GS)):
 -----------------------------------------
   State                        f
 -----------------------------------------
     2     F(REF-CI)=        0.0006894789
     3     F(REF-CI)=        0.0008661406
 -----------------------------------------

 Dipole moment matrix elements, x, y, z, in A.U.

 Dimension of ionized spaces for PT:
 (N-2) space:         1715 /  (N-1) space:         2842 /  N space:         2891
 (N+1) space:         2842 /  (N+2) space:         1715

 <<<Ionized spaces for internal:
         0:         1225 /      -1-0:         1960 /     0-1-0:         2891
  -1-0-1-0:         2842 / 0-1-0-1-0:         3381

 Diagonal elements of averaged one-particle density matrix:
       2       3       4       5       6       7       8
  0.9942  0.9878  0.9891  0.9931  0.0104  0.0145  0.0110
  0.9899  0.6588  0.6612  0.6635  0.0085  0.0102  0.0078

 Orbital energies:
 -------- Doubly-occupied orbitals (highest several orbs.) -------
             1
 -1.598663D+01
 -------- Active orbitals ----------------------------------------
             2            3            4            5            6
 -1.531399D+00-8.883257D-01-9.799516D-01-7.561899D-01 4.131670D-01
             7            8
  2.861391D-01 4.169354D-01
 -------- External orbitals (lowest several orbs.) ---------------
             9           10           11           12           13
  1.533606D-01 1.996909D-01 2.055005D-01 5.409390D-01 5.874001D-01
            14           15           16           17           18
  6.288489D-01 8.046265D-01 9.634306D-01 9.935167D-01 1.316770D+00

 *** Quasi-degeneracy checking

 === Det (|Ci| > 1.0D-01 and dE < 5.0D-03)

 # of small denominators (single excitations)
 State       dEmin  dE < 5.0D-03  dE < 5.0D-04  dE < 5.0D-05  dE < 5.0D-06
 ----- ----------- ------------- ------------- ------------- -------------
     1    5.00D-03             0             0             0             0
     2    5.00D-03             0             0             0             0
     3    5.00D-03             0             0             0             0

 # of small denominators (double excitations)
 State       dEmin  dE < 5.0D-03  dE < 5.0D-04  dE < 5.0D-05  dE < 5.0D-06
 ----- ----------- ------------- ------------- ------------- -------------
     1    5.00D-03             0             0             0             0
     2    5.00D-03             0             0             0             0
     3    5.00D-03             0             0             0             0

 *** Zeroth-Order Setup (Granovsky's zeroth-order vectors)
 Zeroth-order effective Hamiltonian
  (= Sum_i e(i)*<I|a+(i)a(i)|J> ):
                   1            2            3
     1 -7.455020D+00
     2  6.539300D-03-7.343905D+00
     3 -1.412413D-03-1.047507D-03-7.246559D+00

 Zeroth-order vectors:
 State #    1
       MC st            1           2           3
       Coeff   -9.983D-01   5.848D-02  -6.458D-03
 State #    2
       MC st            2           1           3
       Coeff   -9.982D-01  -5.840D-02  -1.163D-02
 State #    3
       MC st            3           2           1
       Coeff    9.999D-01  -1.124D-02  -7.127D-03

 *** GMC-QDPT computation

 (Integral reading:  CPU/Wall time =           0.00 /           0.00 sec.)

 One-external:
   0 -ionized terms: CPU/Wall time =           0.03 /           0.04 sec.
 (-1)-ionized terms: CPU/Wall time =           0.09 /           0.08 sec.
 (+1)-ionized terms: CPU/Wall time =           0.02 /           0.02 sec.
 (+1)-ionized terms: CPU/Wall time =           0.01 /           0.01 sec.
 (+2)-ionized terms: CPU/Wall time =           0.00 /           0.00 sec.

 Internal:
 # of macro loops for internal contribution =         1 (input)
 Loop:    1
 Dimension of internal CISD space     =         0  (after screening)
 Space construction: CPU/Wall time =           0.02 /           0.02 sec.
 Internal terms:     CPU/Wall time =           0.00 /           0.00 sec.

 Two-external:
   0 -ionized terms: CPU/Wall time =           0.06 /           0.06 sec.
 (-1)-ionized terms: CPU/Wall time =           0.99 /           0.99 sec.
 (-2)-ionized terms: CPU/Wall time =           0.17 /           0.17 sec.

 Total time:         CPU/Wall time =           1.39 /           1.39 sec.

 ***                  ***
 *** GMC-QDPT Results ***
 ***                  ***

 Diagonal elements of effective Hamiltonian:
 Heff(  1) =   -55.99645635
 Heff(  2) =   -55.83995552
 Heff(  3) =   -55.75348449

 Off-diagonal elements of effective Hamiltonian:
                   1            2
     2 -8.757710D-03
     3 -1.547860D-03-9.985637D-04

 ******** GMC-QDPT energies ********
 ----------------------------------------------------------------------------
   State                        1st order                           2nd order
 ----------------------------------------------------------------------------
     1     E(REF-CI)=      -55.8993002527   E(GMC-QDPT2)=      -55.9969554324
     2     E(REF-CI)=      -55.7304598050   E(GMC-QDPT2)=      -55.8394766173
     3     E(REF-CI)=      -55.6425927132   E(GMC-QDPT2)=      -55.7534643137
 ----------------------------------------------------------------------------

 Excitation energies (invalid if E(1)/=E(GS)):
 ----------------------------------------------------------------------------
   State                        1st order                           2nd order
 ----------------------------------------------------------------------------

     TZ Sorted GMC-PT ENERGIES:
         1      -55.9969554324
         2      -55.8394766173
         3      -55.7534643137
     2     E(REF-CI)=        4.5943850 eV   E(GMC-QDPT2)=        4.2852190 eV
     3     E(REF-CI)=        6.9853715 eV   E(GMC-QDPT2)=        6.6257342 eV
 ----------------------------------------------------------------------------

 Main characters of perturbed GMC-QDPT states:

 State #    1  Energy =     -55.996955432  S =  0.500

      Det      Coef    Occupancy (Ignoring core)
      ---      ----    --------- --------- -----
        1    0.979250  11110001110000
      393    0.070725  10110101010010
      717    0.061794  11010011100001

 State #    2  Energy =     -55.839476617  S =  0.500

      Det      Coef    Occupancy (Ignoring core)
      ---      ----    --------- --------- -----
       71    0.983804  11110001011000
      822   -0.061805  11010011001001

 State #    3  Energy =     -55.753464314  S =  0.500

      Det      Coef    Occupancy (Ignoring core)
      ---      ----    --------- --------- -----
       36    0.981876  11110001101000
      463    0.070878  10110101001010

 <<<Max |V/de| = 2.510D-02  Thresh = 1.000D+00

 Oscillator strength (invalid if E(1)/=E(GS)):
 ----------------------------------------------------------------------------
   State                        1st order                           2nd order
 ----------------------------------------------------------------------------
     2     F(REF-CI)=        0.0006894789     F(GMC-PT2)=        0.0006657780
     3     F(REF-CI)=        0.0008661406     F(GMC-PT2)=        0.0008392414
 ----------------------------------------------------------------------------

 Dipole moment matrix elements, x, y, z, in A.U.
States    1    1        0.1584163418        0.0583526682        0.7606086206
States    1    2        0.0266019217        0.0002585618        0.0750590887
States    1    3        0.0095488714        0.0655166660       -0.0280435226
States    2    1        0.0266019217        0.0002585618        0.0750590887
States    2    2        0.0348941275       -0.0636509870        0.2621688847
States    2    3        0.0731975713       -0.2409730630        0.0010761060
States    3    1        0.0095488714        0.0655166660       -0.0280435226
States    3    2        0.0731975713       -0.2409730630        0.0010761060
States    3    3        0.3819078450        0.1921404340        0.2572140734

 Oscillator strength (valid only when positive): 
 ----------------------------------------------------------------------------
  States                        1st order                           2nd order
 ----------------------------------------------------------------------------
  1  1     F(REF-CI)=        0.0000000000     F(GMC-PT2)=        0.0000000000
  1  2     F(REF-CI)=       -0.0006894789     F(GMC-PT2)=       -0.0006657780
  1  3     F(REF-CI)=       -0.0008661406     F(GMC-PT2)=       -0.0008392414
  2  1     F(REF-CI)=        0.0006894789     F(GMC-PT2)=        0.0006657780
  2  2     F(REF-CI)=        0.0000000000     F(GMC-PT2)=        0.0000000000
  2  3     F(REF-CI)=       -0.0037231033     F(GMC-PT2)=       -0.0036370050
  3  1     F(REF-CI)=        0.0008661406     F(GMC-PT2)=        0.0008392414
  3  2     F(REF-CI)=        0.0037231033     F(GMC-PT2)=        0.0036370050
  3  3     F(REF-CI)=        0.0000000000     F(GMC-PT2)=        0.0000000000
 CPU     0: STEP CPU TIME=     1.86 TOTAL CPU TIME=         12.1 (      0.2 MIN)
 TOTAL WALL CLOCK TIME=         12.1 SECONDS, CPU UTILIZATION IS    99.84%

     !!! DIABATIZATION FOR REF CI STATES !!!

 *******************************************************
          $DMO GROUP FOUND IN THE INPUT.
        DIABATIZATION OF ADIABATIC STATES BEGINS.
     PROGRAMMED BY TAO ZENG (CARLETON UNIVERSITY).
               Email: toby.zeng@carleton.ca
     See T. Zeng, J. Chem. Phys. 2017, 146, 144103
 *******************************************************

 *************************************************************************
     STEP 1: TRANSFORMATION OF ADIABATIC STATES TO THE DMO REPRESENTATION
         See Atchity and Ruedenberg, J. Chem. Phys. 1999, 111, 2910
 *************************************************************************

Read in Diabatic Molecualr Orbitals:

                      1          2          3          4          5

    1  N  1  S    0.008609   0.000000   0.000000  -0.013219   0.279491
    2  N  1  S    0.442914  -0.000000   0.000000  -0.184329   0.867803
    3  N  1  S    0.276913   0.000000  -0.000000  -0.288315   0.144236
    4  N  1  X   -0.000000   0.493155  -0.024636  -0.000000  -0.000000
    5  N  1  Y    0.000000   0.024636   0.493155  -0.000000   0.000000
    6  N  1  Z    0.090197   0.000000   0.000000   0.593421   0.705309
    7  N  1  X   -0.000000   0.210628  -0.010522   0.000000   0.000000
    8  N  1  Y    0.000000   0.010522   0.210628  -0.000000  -0.000000
    9  N  1  Z   -0.004381   0.000000   0.000000   0.381592  -0.106092
   10  N  1 XX   -0.000457   0.010719  -0.000535  -0.012387   0.006153
   11  N  1 YY   -0.000457  -0.010719   0.000535  -0.012387   0.006153
   12  N  1 ZZ    0.000914  -0.000000   0.000000   0.024773  -0.012306
   13  N  1 XY    0.000000  -0.000618  -0.012377  -0.000000   0.000000
   14  N  1 XZ   -0.000000   0.026529  -0.001325  -0.000000   0.000000
   15  N  1 YZ    0.000000   0.001325   0.026529  -0.000000   0.000000
   16  H  2  S    0.194462  -0.176074   0.343485   0.112865  -0.523343
   17  H  2  S    0.003574  -0.023812   0.046452   0.024014  -0.054445
   18  H  2  X    0.018760   0.009101   0.022834   0.009336  -0.039151
   19  H  2  Y   -0.032493   0.022287  -0.020044  -0.016171   0.067811
   20  H  2  Z   -0.009251   0.008464  -0.016511   0.018769  -0.010566
   21  H  3  S    0.194462  -0.209430  -0.324227   0.112865  -0.523343
   22  H  3  S    0.003574  -0.028322  -0.043847   0.024014  -0.054445
   23  H  3  X    0.018760   0.006781  -0.023627   0.009336  -0.039151
   24  H  3  Y    0.032493  -0.024174  -0.017723   0.016171  -0.067811
   25  H  3  Z   -0.009251   0.010067   0.015585   0.018769  -0.010566
   26  H  4  S    0.194462   0.385503  -0.019258   0.112865  -0.523343
   27  H  4  S    0.003574   0.052134  -0.002604   0.024014  -0.054445
   28  H  4  X   -0.037519  -0.032295   0.001613  -0.018672   0.078302
   29  H  4  Y    0.000000   0.001067   0.021353  -0.000000   0.000000
   30  H  4  Z   -0.009251  -0.018530   0.000926   0.018769  -0.010566

                      6          7

    1  N  1  S    0.000000  -0.000000
    2  N  1  S    0.000000  -0.000000
    3  N  1  S   -0.000000   0.000000
    4  N  1  X   -0.930415  -0.002083
    5  N  1  Y   -0.002083   0.930415
    6  N  1  Z   -0.000000   0.000000
    7  N  1  X   -0.046866  -0.000105
    8  N  1  Y   -0.000105   0.046866
    9  N  1  Z   -0.000000   0.000000
   10  N  1 XX    0.001538   0.000003
   11  N  1 YY   -0.001538  -0.000003
   12  N  1 ZZ   -0.000000   0.000000
   13  N  1 XY   -0.000004   0.001776
   14  N  1 XZ    0.039985   0.000090
   15  N  1 YZ    0.000090  -0.039985
   16  H  2  S   -0.362630  -0.631354
   17  H  2  S   -0.065964  -0.114846
   18  H  2  X    0.002763  -0.037520
   19  H  2  Y    0.037435   0.040736
   20  H  2  Z    0.001882   0.003276
   21  H  3  S   -0.365454   0.629724
   22  H  3  S   -0.066477   0.114549
   23  H  3  X    0.002595   0.037532
   24  H  3  Y   -0.037617   0.040567
   25  H  3  Z    0.001896  -0.003268
   26  H  4  S    0.728084   0.001630
   27  H  4  S    0.132441   0.000297
   28  H  4  X   -0.062317  -0.000140
   29  H  4  Y    0.000055  -0.024345
   30  H  4  Z   -0.003778  -0.000008

NUMBER OF SUB ACTIVE SPACES:   1
ROTATE ACTIVE MOS TO DMOS IN EACH SUB-SPACE

SPACE  1:

OVERLAP BETWEEN ORTHONORMAL AND PRE-ORTHONORMAL REF. DMOS

             1           2           3           4           5

    1    0.9948318   0.0161616   0.0022409  -0.0017817   0.0006343
    2    0.0161616   0.9598766   0.0168257   0.0212538  -0.0381401
    3    0.0022409   0.0168257   1.0230951   0.0049377  -0.0123551
    4   -0.0017817   0.0212538   0.0049377   0.9987648  -0.0024839
    5    0.0006343  -0.0381401  -0.0123551  -0.0024839   1.0311337
    6   -0.0026796  -0.0291556   0.0146080   0.0218898   0.0111793
    7    0.0012828  -0.0125258  -0.0243161  -0.0086689   0.0097961

             6           7

    1   -0.0026796   0.0012828
    2   -0.0291556  -0.0125258
    3    0.0146080  -0.0243161
    4    0.0218898  -0.0086689
    5    0.0111793   0.0097961
    6    1.0293523   0.0044171
    7    0.0044171   0.9966117
REFERENCE DMOS AFTER ORTHONORMALIZATION:

                      1          2          3          4          5

    1  N  1  S    0.008273   0.010771   0.003118  -0.012760   0.271503
    2  N  1  S    0.443852   0.029635   0.009406  -0.182360   0.842227
    3  N  1  S    0.277643   0.007317   0.002168  -0.288153   0.139292
    4  N  1  X   -0.010297   0.488210  -0.018912   0.009332   0.027443
    5  N  1  Y   -0.002845   0.028656   0.504182   0.005377  -0.001739
    6  N  1  Z    0.091041   0.011824   0.005264   0.596165   0.686118
    7  N  1  X   -0.003648   0.218978  -0.013143  -0.003701   0.008338
    8  N  1  Y   -0.000675   0.008039   0.207057  -0.000671   0.002315
    9  N  1  Z   -0.003468  -0.012599  -0.002663   0.382282  -0.102423
   10  N  1 XX   -0.000670   0.011783  -0.000608  -0.012680   0.006344
   11  N  1 YY   -0.000316  -0.010739   0.000843  -0.012131   0.005571
   12  N  1 ZZ    0.000986  -0.001044  -0.000235   0.024811  -0.011915
   13  N  1 XY    0.000033  -0.000418  -0.012060   0.000078  -0.000176
   14  N  1 XZ   -0.000361   0.028951  -0.002319  -0.001473   0.000607
   15  N  1 YZ   -0.000014   0.000463   0.024995  -0.000473   0.000692
   16  H  2  S    0.198916  -0.233978   0.322844   0.117933  -0.502389
   17  H  2  S    0.004059  -0.031695   0.043402   0.024823  -0.051611
   18  H  2  X    0.018795   0.006747   0.020762   0.008659  -0.037146
   19  H  2  Y   -0.033111   0.028736  -0.018693  -0.017066   0.065804
   20  H  2  Z   -0.009360   0.008550  -0.016421   0.018635  -0.010130
   21  H  3  S    0.198886  -0.242567  -0.300247   0.131991  -0.522022
   22  H  3  S    0.003964  -0.032151  -0.039472   0.027222  -0.054780
   23  H  3  X    0.018813   0.005997  -0.022894   0.009529  -0.038401
   24  H  3  Y    0.033094  -0.029102  -0.016314   0.017946  -0.067002
   25  H  3  Z   -0.009442   0.009611   0.014807   0.018417  -0.009658
   26  H  4  S    0.191495   0.399349  -0.042427   0.088028  -0.501100
   27  H  4  S    0.003119   0.055828  -0.006037   0.019910  -0.052186
   28  H  4  X   -0.037453  -0.031617   0.004033  -0.016570   0.075482
   29  H  4  Y   -0.000024   0.000466   0.020304  -0.000314   0.000488
   30  H  4  Z   -0.008945  -0.020171   0.001099   0.019274  -0.010879

                      6          7

    1  N  1  S   -0.002384  -0.002568
    2  N  1  S   -0.003366  -0.009819
    3  N  1  S    0.005532  -0.004113
    4  N  1  X   -0.890342   0.007355
    5  N  1  Y   -0.012531   0.946363
    6  N  1  Z   -0.019627  -0.001312
    7  N  1  X   -0.039172   0.002390
    8  N  1  Y   -0.003049   0.052164
    9  N  1  Z   -0.007363   0.004146
   10  N  1 XX    0.002036  -0.000044
   11  N  1 YY   -0.001612  -0.000271
   12  N  1 ZZ   -0.000423   0.000315
   13  N  1 XY    0.000149   0.001484
   14  N  1 XZ    0.039721   0.000203
   15  N  1 YZ   -0.000083  -0.039516
   16  H  2  S   -0.357366  -0.621273
   17  H  2  S   -0.065066  -0.113569
   18  H  2  X    0.003006  -0.036653
   19  H  2  Y    0.036837   0.039863
   20  H  2  Z    0.001979   0.003259
   21  H  3  S   -0.356962   0.629096
   22  H  3  S   -0.065398   0.114631
   23  H  3  X    0.003118   0.037598
   24  H  3  Y   -0.036880   0.040877
   25  H  3  Z    0.001604  -0.002537
   26  H  4  S    0.723271   0.007859
   27  H  4  S    0.130479   0.000956
   28  H  4  X   -0.062053  -0.001002
   29  H  4  Y   -0.000118  -0.023933
   30  H  4  Z   -0.004573   0.000071

 -------------------------------------------
       MAXIMIZING MORMO OVERLAP TERM        
 -------------------------------------------
   SWEEP    VALUE       PROGRESS
     0     6.34263
     1     6.98922     0.64659656
     2     6.98979     0.00056346
     3     6.98979     0.00000001
     4     6.98979     0.00000000
 THE ROTATION IS DONE
FLIPPING SIGN FOR ORBITAL   7
ACTIVE ORBITALS AFTER MORMO:

                      1          2          3          4          5

    1  N  1  S    0.007959   0.015214   0.003744  -0.012660   0.257858
    2  N  1  S    0.438977   0.034864   0.006913  -0.184749   0.824488
    3  N  1  S    0.292184  -0.028641   0.000031  -0.284779   0.157036
    4  N  1  X   -0.003172   0.473712  -0.015674   0.018471   0.017284
    5  N  1  Y   -0.002540   0.031677   0.503626   0.005801  -0.003595
    6  N  1  Z    0.088427   0.020858   0.007068   0.596084   0.683547
    7  N  1  X   -0.014895   0.247434  -0.024674  -0.027090   0.029248
    8  N  1  Y   -0.001271  -0.003835   0.187810  -0.007389   0.007287
    9  N  1  Z    0.003974  -0.036358  -0.007792   0.382171  -0.099062
   10  N  1 XX   -0.001778   0.016615  -0.000964  -0.012712   0.027544
   11  N  1 YY    0.000859  -0.016026   0.001151  -0.011505  -0.019793
   12  N  1 ZZ    0.000918  -0.000590  -0.000187   0.024218  -0.007751
   13  N  1 XY    0.000895  -0.000284  -0.007306  -0.000662  -0.011067
   14  N  1 XZ    0.000040   0.025853  -0.002350   0.000781  -0.027040
   15  N  1 YZ    0.000737   0.000214   0.022549  -0.000609  -0.008114
   16  H  2  S    0.191715  -0.194948   0.334057   0.113266  -0.494894
   17  H  2  S    0.002663  -0.043915   0.046285   0.026889  -0.055194
   18  H  2  X    0.010295   0.014097   0.014819   0.006315  -0.029714
   19  H  2  Y   -0.034444   0.021906  -0.027578  -0.016261   0.064426
   20  H  2  Z   -0.008096   0.005226  -0.016719   0.018994  -0.013730
   21  H  3  S    0.190287  -0.221220  -0.316313   0.120332  -0.513465
   22  H  3  S    0.001525  -0.035748  -0.035837   0.027684  -0.055593
   23  H  3  X    0.013921   0.010650  -0.019656   0.006711  -0.030208
   24  H  3  Y    0.034616  -0.024815  -0.025710   0.015823  -0.065506
   25  H  3  Z   -0.006508   0.007006   0.013729   0.019614  -0.011964
   26  H  4  S    0.193311   0.390917  -0.029469   0.099899  -0.512166
   27  H  4  S    0.004502   0.071989  -0.012074   0.020988  -0.057099
   28  H  4  X   -0.034556  -0.027905   0.001647  -0.019089   0.073253
   29  H  4  Y   -0.003131  -0.001876   0.021957  -0.000392  -0.000605
   30  H  4  Z   -0.012466  -0.023300   0.000324   0.018155  -0.009583

                      6          7

    1  N  1  S    0.021047  -0.015888
    2  N  1  S    0.050455  -0.034550
    3  N  1  S   -0.066033   0.027309
    4  N  1  X   -0.889597   0.003394
    5  N  1  Y   -0.008245   0.941815
    6  N  1  Z   -0.050243   0.005722
    7  N  1  X   -0.034349   0.010472
    8  N  1  Y   -0.011835   0.070377
    9  N  1  Z    0.016777   0.001441
   10  N  1 XX    0.024091   0.006833
   11  N  1 YY   -0.028644  -0.004453
   12  N  1 ZZ    0.004554  -0.002380
   13  N  1 XY    0.007480  -0.027467
   14  N  1 XZ    0.028907  -0.003710
   15  N  1 YZ    0.005225  -0.052462
   16  H  2  S   -0.332395  -0.626247
   17  H  2  S   -0.072195  -0.125332
   18  H  2  X    0.011768  -0.030689
   19  H  2  Y    0.032296   0.049469
   20  H  2  Z    0.012065  -0.006745
   21  H  3  S   -0.343253   0.633368
   22  H  3  S   -0.065342   0.118088
   23  H  3  X    0.003206   0.030708
   24  H  3  Y   -0.031790   0.052076
   25  H  3  Z    0.005988   0.008178
   26  H  4  S    0.711646  -0.002546
   27  H  4  S    0.149112   0.005305
   28  H  4  X   -0.054695   0.001555
   29  H  4  Y   -0.000566  -0.037093
   30  H  4  Z   -0.009681  -0.004896

Actually Used Diabatic Molecualr Orbitals:

                      1          2          3          4          5

    1  N  1  S    0.007959   0.015214   0.003744  -0.012660   0.257858
    2  N  1  S    0.438977   0.034864   0.006913  -0.184749   0.824488
    3  N  1  S    0.292184  -0.028641   0.000031  -0.284779   0.157036
    4  N  1  X   -0.003172   0.473712  -0.015674   0.018471   0.017284
    5  N  1  Y   -0.002540   0.031677   0.503626   0.005801  -0.003595
    6  N  1  Z    0.088427   0.020858   0.007068   0.596084   0.683547
    7  N  1  X   -0.014895   0.247434  -0.024674  -0.027090   0.029248
    8  N  1  Y   -0.001271  -0.003835   0.187810  -0.007389   0.007287
    9  N  1  Z    0.003974  -0.036358  -0.007792   0.382171  -0.099062
   10  N  1 XX   -0.001778   0.016615  -0.000964  -0.012712   0.027544
   11  N  1 YY    0.000859  -0.016026   0.001151  -0.011505  -0.019793
   12  N  1 ZZ    0.000918  -0.000590  -0.000187   0.024218  -0.007751
   13  N  1 XY    0.000895  -0.000284  -0.007306  -0.000662  -0.011067
   14  N  1 XZ    0.000040   0.025853  -0.002350   0.000781  -0.027040
   15  N  1 YZ    0.000737   0.000214   0.022549  -0.000609  -0.008114
   16  H  2  S    0.191715  -0.194948   0.334057   0.113266  -0.494894
   17  H  2  S    0.002663  -0.043915   0.046285   0.026889  -0.055194
   18  H  2  X    0.010295   0.014097   0.014819   0.006315  -0.029714
   19  H  2  Y   -0.034444   0.021906  -0.027578  -0.016261   0.064426
   20  H  2  Z   -0.008096   0.005226  -0.016719   0.018994  -0.013730
   21  H  3  S    0.190287  -0.221220  -0.316313   0.120332  -0.513465
   22  H  3  S    0.001525  -0.035748  -0.035837   0.027684  -0.055593
[...]
      389    0.022112    0.022112  202++-0
      122   -0.022048   -0.022048  +2-200+
      388   -0.020582   -0.020582  2+-++-0
      742    0.020536    0.020536  2+-+0+-

 State #    2  Energy =     -55.838810037

      Det      Coef        Coefp    Occupancy (Ignoring core)
      ---      ----        ----    --------- --------- -----
       71   -0.944670    0.944670  2+22000
       36   -0.218894   -0.218894  22+2000
        1    0.168058   -0.168058  222+000
      822    0.060467   -0.060467  2+02002
      813   -0.036254    0.036254  20+20+-
      113    0.035585   -0.035585  +-220+0
      320    0.030661    0.030661  0+22200
      183   -0.028240    0.028240  202+-+0
      462    0.027662   -0.027662  2+02020
       74    0.027654   -0.027654  2022+00
      177    0.027374   -0.027374  2+20200
        6    0.027363   -0.027363  22200+0
      111    0.026693   -0.026693  +22-0+0
      323   -0.025628    0.025628  +022-+0
       42   -0.024953    0.024953  22020+0
      810    0.023571    0.023571  -++2+0-
      751    0.022207   -0.022207  2+20002
      332    0.021513   -0.021513  ++-2-0+
      180   -0.020638    0.020638  -+2+200
      534    0.020524    0.020524  0+22020

 State #    3  Energy =     -55.757784359

      Det      Coef        Coefp    Occupancy (Ignoring core)
      ---      ----        ----    --------- --------- -----
       36   -0.955676   -0.955676  22+2000
       71    0.225487   -0.225487  2+22000
      463    0.068758   -0.068758  20+2020
      121    0.041559   -0.041559  +22-00+
      112   -0.036101   -0.036101  +2-20+0
      249    0.035104   -0.035104  20+2200
      472    0.034680    0.034680  2+020-+
      285    0.030511   -0.030511  02+2200
      253    0.028403    0.028403  20+2-+0
      460   -0.026548   -0.026548  -++2+-0
      288   -0.025850   -0.025850  +-+2-+0
       86   -0.025721   -0.025721  2+2-00+
      716    0.025679    0.025679  22+0002
      459   -0.024126    0.024126  20+2+-0
      142    0.023640    0.023640  22+0200
      771   -0.023511   -0.023511  +22+00-
       41   -0.023099    0.023099  22+-0+0
      148   -0.021996   -0.021996  2-++-+0
      297   -0.021621    0.021621  +202-0+
      356    0.021540    0.021540  22+0020
       77    0.021484   -0.021484  2+-20+0
      457   -0.021268    0.021268  2++-+-0
        7    0.021135    0.021135  22-+0+0
       52   -0.020854    0.020854  220200+
       39   -0.020254   -0.020254  2-+2+00

 ---------------------------------------
    -DIABATIC STATES IN PROTOTYPES-     
 ---------------------------------------

     STATE:    1
 Group Ref#    Coefficients
     1    1    0.989535
     2    2    0.001531
     3    3   -0.000198

WEIGHT OF LISTED PROTOTYPES:   97.92%

     STATE:    2
 Group Ref#    Coefficients
     1    1    0.001531
     2    2    0.989871
     3    3   -0.000024

WEIGHT OF LISTED PROTOTYPES:   97.98%

     STATE:    3
 Group Ref#    Coefficients
     1    1   -0.000198
     2    2   -0.000024
     3    3    0.987056

WEIGHT OF LISTED PROTOTYPES:   97.43%

 --------------------------------------------------
 IN DIRECT MAX. DIABATIZATION FOR GMC-QDPT

 DIRECT MAXIMIZATION (DM) WITHOUT TRUNCATING ADIABATS
 EXPANSIONS INTO THE REFERENCE CONFIGURATION SPACE
 --------------------------------------------------

 -------------------------------------------
 - DM DIABT PT HAMILTONIAN MATRIX ELEMENTS -
 -------------------------------------------
                                            
 --- DIABATIC ENERGIES (DIAGONAL ELEMENT) ---       HARTREE            EV
 STATE #  1'S GMC-PT-LEVEL DIABATIC ENERGY=     -55.993301984       0.000000000
 STATE #  2'S GMC-PT-LEVEL DIABATIC ENERGY=     -55.838810023       4.203940373
 STATE #  3'S GMC-PT-LEVEL DIABATIC ENERGY=     -55.757784356       6.408761079

 --- DIABATIC COUPLINGS (OFF DIAGONAL ELEMENTS)---  HATREE            EV
 STATE #  1 &  2'S GMC-PT-LEVEL COUPLING  =      -0.023707140      -0.645104147
 STATE #  1 &  3'S GMC-PT-LEVEL COUPLING  =      -0.007509025      -0.204330986
 STATE #  2 &  3'S GMC-PT-LEVEL COUPLING  =       0.017671338       0.480861593

 ---------------------------------------
     - ROTATION TO DIABATIC STATES -    
 ---------------------------------------
 ROWS=ADIABATIC, COLUMNS=DIABATIC STATES

             1           2           3

    1   -0.9890762  -0.1460052  -0.0202654
    2   -0.1379645   0.9653510  -0.2215023
    3    0.0519037  -0.2162867  -0.9749493

 ---------------------------------------
          - DIABATIC STATES -           
 ---------------------------------------

 State #    1  Energy =     -55.993301984

      Det      Coef        Coefp    Occupancy (Ignoring core)
      ---      ----        ----    --------- --------- -----
        1    0.972321   -0.972321  222+000
        8   -0.085100    0.085100  2-2+0+0
      393   -0.075760   -0.075760  202+020
      717   -0.065873   -0.065873  220+002
      386    0.055696   -0.055696  2+2+0-0
        4   -0.053799    0.053799  2-2++00
      176    0.052073   -0.052073  2+2+-00
      708    0.039481   -0.039481  2-++0+-
      402    0.037842   -0.037842  2+-+0-+
        6    0.035497   -0.035497  22200+0
      215   -0.034704   -0.034704  022+200
      218    0.033385   -0.033385  +-2+-+0
      390    0.033130   -0.033130  -+2++-0
      227   -0.032519   -0.032519  +2-+-0+
      705   -0.032427   -0.032427  -2+++0-
       76    0.029404    0.029404  2+2-0+0
      212    0.028230    0.028230  +220200
        2    0.027830   -0.027830  2220+00
      113   -0.027546    0.027546  +-220+0
       51   -0.026290    0.026290  22+-00+
      143   -0.024583   -0.024583  220+200
      424   -0.023866   -0.023866  +-2++-0
      122    0.023682    0.023682  +2-200+
      184   -0.022808   -0.022808  -+2+-+0
      387   -0.022595    0.022595  2+20+-0
       17    0.022238    0.022238  22-+00+
      702    0.021697    0.021697  22+0+0-
      106   -0.021694   -0.021694  +222000
      742   -0.020878   -0.020878  2+-+0+-
      773    0.020825   -0.020825  +2-++0-
      368   -0.020528   -0.020528  2-++0-+
      159    0.020491   -0.020491  -2++-0+

 State #    2  Energy =     -55.838810023

      Det      Coef        Coefp    Occupancy (Ignoring core)
      ---      ----        ----    --------- --------- -----
       71   -0.974758    0.974758  2+22000
       74    0.079885   -0.079885  2022+00
      822    0.064147   -0.064147  2+02002
       76    0.063381    0.063381  2+2-0+0
      386   -0.052039    0.052039  2+2+0-0
       36    0.046779    0.046779  22+2000
      813    0.041852   -0.041852  20+20+-
      106    0.039478    0.039478  +222000
      323   -0.035195    0.035195  +022-+0
      111    0.034766   -0.034766  +22-0+0
      320    0.033978    0.033978  0+22200
      810   -0.032718   -0.032718  -++2+0-
      113    0.032118   -0.032118  +-220+0
      332   -0.030968    0.030968  ++-2-0+
      180   -0.028851    0.028851  -+2+200
      317    0.028552   -0.028552  ++2-200
       38   -0.027738    0.027738  2202+00
       78    0.026890   -0.026890  20220+0
      183   -0.026861    0.026861  202+-+0
      177    0.026781   -0.026781  2+20200
      248    0.025387   -0.025387  2+02200
       99   -0.025234    0.025234  20-20++
        6    0.024685   -0.024685  22200+0
       81    0.022996    0.022996  202-++0
      526   -0.022591   -0.022591  ++220-0
      807   -0.022548    0.022548  2++-+0-
      391    0.022120   -0.022120  2+20020
      192   -0.022021    0.022021  2+-+-0+
      529    0.021881    0.021881  +022+-0
       51    0.021775   -0.021775  22+-00+
      751    0.021629   -0.021629  2+20002
      534    0.020697    0.020697  0+22020
      878    0.020015    0.020015  ++-2+0-

 State #    3  Energy =     -55.757784356

      Det      Coef        Coefp    Occupancy (Ignoring core)
      ---      ----        ----    --------- --------- -----
       36   -0.974830   -0.974830  22+2000
      463    0.077224   -0.077224  20+2020
      246   -0.058888   -0.058888  2++2-00
      456   -0.056409   -0.056409  2++20-0
       71   -0.047064    0.047064  2+22000
      472   -0.042733   -0.042733  2+020-+
      121   -0.042194    0.042194  +22-00+
       43    0.041095    0.041095  2-+20+0
       52    0.039592   -0.039592  220200+
      285    0.034843   -0.034843  02+2200
      112   -0.034708   -0.034708  +2-20+0
      460   -0.034372   -0.034372  -++2+-0
      351   -0.032991   -0.032991  22++0-0
      288   -0.032913   -0.032913  +-+2-+0
      297    0.032090   -0.032090  +202-0+
       39    0.030668    0.030668  2-+2+00
      145   -0.028558   -0.028558  -2++200
      282    0.028508    0.028508  +2+-200
       73    0.028220   -0.028220  2+-2+00
      142    0.026879    0.026879  22+0200
       16   -0.026550    0.026550  222000+
       64    0.025430   -0.025430  2-020++
      457   -0.025146    0.025146  2++-+-0
      148   -0.024916   -0.024916  2-++-+0
      254    0.023805   -0.023805  -++2-+0
      716    0.023700    0.023700  22+0002
      157    0.023445   -0.023445  220+-0+
      771    0.023126    0.023126  +22+00-
      494    0.022710   -0.022710  +-+2+-0
      249    0.022031   -0.022031  20+2200
       86    0.021360    0.021360  2+2-00+
      356    0.021129    0.021129  22+0020
       44    0.020115   -0.020115  -2+20+0

 ---------------------------------------
      - DIABATIC STATES IN CMO -        
 ---------------------------------------

 State #    1  Energy =     -55.993301984

      Det      Coef        Coefp    Occupancy (Ignoring core)
      ---      ----        ----    --------- --------- -----
        1    0.964923   -0.964923  222+000
       71    0.158880   -0.158880  2+22000
      393   -0.070594   -0.070594  202+020
      717   -0.061766   -0.061766  220+002
       36    0.053885    0.053885  22+2000
       17   -0.040642   -0.040642  22-+00+
        8   -0.039644    0.039644  2-2+0+0
      402   -0.034828    0.034828  2+-+0-+
      179   -0.031708   -0.031708  202+200
      708   -0.031697    0.031697  2-++0+-
      215   -0.031399   -0.031399  022+200
      390    0.028947   -0.028947  -+2++-0
      106   -0.026652   -0.026652  +222000
       76    0.026493    0.026493  2+2-0+0
      357   -0.026329   -0.026329  220+020
      218    0.026081   -0.026081  +-2+-+0
      113   -0.025194    0.025194  +-220+0
        2    0.023879   -0.023879  2220+00
       51    0.023641   -0.023641  22+-00+
      705    0.022415    0.022415  -2+++0-
      227    0.022389    0.022389  +2-+-0+
      387   -0.022130    0.022130  2+20+-0
      389    0.022112    0.022112  202++-0
      122   -0.022048   -0.022048  +2-200+
      388   -0.020582   -0.020582  2+-++-0
      742    0.020536    0.020536  2+-+0+-

 State #    2  Energy =     -55.838810023

      Det      Coef        Coefp    Occupancy (Ignoring core)
      ---      ----        ----    --------- --------- -----
       71   -0.944670    0.944670  2+22000
       36   -0.218894   -0.218894  22+2000
        1    0.168058   -0.168058  222+000
      822    0.060467   -0.060467  2+02002
      813   -0.036254    0.036254  20+20+-
      113    0.035585   -0.035585  +-220+0
      320    0.030661    0.030661  0+22200
      183   -0.028240    0.028240  202+-+0
      462    0.027662   -0.027662  2+02020
       74    0.027654   -0.027654  2022+00
      177    0.027374   -0.027374  2+20200
        6    0.027363   -0.027363  22200+0
      111    0.026693   -0.026693  +22-0+0
      323   -0.025628    0.025628  +022-+0
       42   -0.024953    0.024953  22020+0
      810    0.023571    0.023571  -++2+0-
      751    0.022207   -0.022207  2+20002
      332    0.021513   -0.021513  ++-2-0+
      180   -0.020638    0.020638  -+2+200
      534    0.020524    0.020524  0+22020

 State #    3  Energy =     -55.757784356

      Det      Coef        Coefp    Occupancy (Ignoring core)
      ---      ----        ----    --------- --------- -----
       36   -0.955676   -0.955676  22+2000
       71    0.225487   -0.225487  2+22000
      463    0.068758   -0.068758  20+2020
      121    0.041559   -0.041559  +22-00+
      112   -0.036101   -0.036101  +2-20+0
      249    0.035104   -0.035104  20+2200
      472    0.034680    0.034680  2+020-+
      285    0.030511   -0.030511  02+2200
      253    0.028403    0.028403  20+2-+0
      460   -0.026548   -0.026548  -++2+-0
      288   -0.025850   -0.025850  +-+2-+0
       86   -0.025721   -0.025721  2+2-00+
      716    0.025679    0.025679  22+0002
      459   -0.024126    0.024126  20+2+-0
      142    0.023640    0.023640  22+0200
      771   -0.023511   -0.023511  +22+00-
       41   -0.023099    0.023099  22+-0+0
      148   -0.021996   -0.021996  2-++-+0
      297   -0.021621    0.021621  +202-0+
      356    0.021540    0.021540  22+0020
       77    0.021484   -0.021484  2+-20+0
      457   -0.021268    0.021268  2++-+-0
        7    0.021135    0.021135  22-+0+0
       52   -0.020854    0.020854  220200+
       39   -0.020254   -0.020254  2-+2+00

 ---------------------------------------
    -DIABATIC STATES IN PROTOTYPES-     
 ---------------------------------------

     STATE:    1
 Group Ref#    Coefficients
     1    1    0.989535
     2    2    0.001532
     3    3   -0.000198

WEIGHT OF LISTED PROTOTYPES:   97.92%

     STATE:    2
 Group Ref#    Coefficients
     1    1    0.001531
     2    2    0.989871
     3    3   -0.000024

WEIGHT OF LISTED PROTOTYPES:   97.98%

     STATE:    3
 Group Ref#    Coefficients
     1    1   -0.000198
     2    2   -0.000024
     3    3    0.987056

WEIGHT OF LISTED PROTOTYPES:   97.43%

     DIRECT MAX. DIABATIZATION FINISHED    
 CPU     0: STEP CPU TIME=     0.25 TOTAL CPU TIME=         12.4 (      0.2 MIN)
 TOTAL WALL CLOCK TIME=         12.4 SECONDS, CPU UTILIZATION IS    99.84%

DIABATS FOR SPIN-ORBIT CALCULATION ARE READY

TRANSITION DIPOLES BETWEEN ADIABATS (in A.U.):

STATE PAIR      X         Y         Z
    1    1  0.158416  0.058353  0.760609
    2    1  0.026602  0.000259  0.075059
    2    2  0.034894 -0.063651  0.262169
    3    1  0.009549  0.065517 -0.028044
    3    2  0.073198 -0.240973  0.001076
    3    3  0.381908  0.192140  0.257214


TRANSITION DIPOLES BETWEEN DIABATS (in A.U.):

STATE PAIR      X         Y         Z
    1    1  0.161899  0.053186  0.773114
    2    1 -0.003099  0.008760 -0.003820
    2    2  0.016299  0.055608  0.249183
    3    1  0.009020  0.023025  0.000015
    3    2  0.009896  0.279168 -0.003687
    3    3  0.397021  0.078049  0.257694

TRANSITION DIPOLES BETWEEN DIRECT MAX. DIABATS (in A.U.):

STATE PAIR      X         Y         Z
    1    1  0.161899  0.053186  0.773114
    2    1 -0.003099  0.008760 -0.003820
    2    2  0.016299  0.055608  0.249183
    3    1  0.009020  0.023025  0.000015
    3    2  0.009896  0.279168 -0.003687
    3    3  0.397021  0.078049  0.257694
 No $TRANST Group Found.
 Quit without doing spin-orbit coupling
 ..... DONE WITH MP2 ENERGY .....
 CPU     0: STEP CPU TIME=     0.00 TOTAL CPU TIME=         12.4 (      0.2 MIN)
 TOTAL WALL CLOCK TIME=         12.4 SECONDS, CPU UTILIZATION IS    99.84%
            100000000  WORDS OF DYNAMIC MEMORY USED
 EXECUTION OF GAMESS TERMINATED NORMALLY Wed Nov 16 19:31:59 2022
 DDI: 715512 bytes (0.7 MB / 0 MWords) used by master data server.

 ----------------------------------------
 CPU timing information for all processes
 ========================================
 0: 12.99 + 0.288 = 12.387
 ----------------------------------------
Note: The following floating-point exceptions are signalling: IEEE_DENORMAL
 ddikick.x: exited gracefully.
unset echo
----- accounting info -----
Files used on the master node io002 were:
-rw-r--r-- 1 bsonghao nooijen   20741 Nov 16 19:31 /scratch/bsonghao/nh3_diabatization_2d_at_mode_7_8_dist0.1_0.3.F05
-rw-r--r-- 1 bsonghao nooijen  363520 Nov 16 19:31 /scratch/bsonghao/nh3_diabatization_2d_at_mode_7_8_dist0.1_0.3.F09
-rw-r--r-- 1 bsonghao nooijen 1995920 Nov 16 19:32 /scratch/bsonghao/nh3_diabatization_2d_at_mode_7_8_dist0.1_0.3.F10
-rw-r--r-- 1 bsonghao nooijen  131264 Nov 16 19:31 /scratch/bsonghao/nh3_diabatization_2d_at_mode_7_8_dist0.1_0.3.F13
-rw-r--r-- 1 bsonghao nooijen  180312 Nov 16 19:32 /scratch/bsonghao/nh3_diabatization_2d_at_mode_7_8_dist0.1_0.3.F15
-rw-r--r-- 1 bsonghao nooijen       0 Nov 16 19:31 /scratch/bsonghao/nh3_diabatization_2d_at_mode_7_8_dist0.1_0.3.F16
-rw-r--r-- 1 bsonghao nooijen    9808 Nov 16 19:31 /scratch/bsonghao/nh3_diabatization_2d_at_mode_7_8_dist0.1_0.3.F70
-rw-r--r-- 1 bsonghao nooijen    9808 Nov 16 19:31 /scratch/bsonghao/nh3_diabatization_2d_at_mode_7_8_dist0.1_0.3.F71
-rw-r--r-- 1 bsonghao nooijen   19608 Nov 16 19:31 /scratch/bsonghao/nh3_diabatization_2d_at_mode_7_8_dist0.1_0.3.F72
-rw-r--r-- 1 bsonghao nooijen   19608 Nov 16 19:31 /scratch/bsonghao/nh3_diabatization_2d_at_mode_7_8_dist0.1_0.3.F73
-rw-r--r-- 1 bsonghao nooijen 1920824 Nov 16 19:31 /scratch/bsonghao/nh3_diabatization_2d_at_mode_7_8_dist0.1_0.3.F74
-rw-r--r-- 1 bsonghao nooijen       0 Nov 16 19:31 /scratch/bsonghao/nh3_diabatization_2d_at_mode_7_8_dist0.1_0.3.F75
-rw-r--r-- 1 bsonghao nooijen   58848 Nov 16 19:31 /scratch/bsonghao/nh3_diabatization_2d_at_mode_7_8_dist0.1_0.3.F76
-rw-r--r-- 1 bsonghao nooijen       0 Nov 16 19:31 /scratch/bsonghao/nh3_diabatization_2d_at_mode_7_8_dist0.1_0.3.F77
-rw-r--r-- 1 bsonghao nooijen    1864 Nov 16 19:31 /scratch/bsonghao/nh3_diabatization_2d_at_mode_7_8_dist0.1_0.3.F78
-rw-r--r-- 1 bsonghao nooijen   39208 Nov 16 19:31 /scratch/bsonghao/nh3_diabatization_2d_at_mode_7_8_dist0.1_0.3.F79
-rw-r--r-- 1 bsonghao nooijen     104 Nov 16 19:31 /scratch/bsonghao/nh3_diabatization_2d_at_mode_7_8_dist0.1_0.3.F80
-rw-r--r-- 1 bsonghao nooijen   13472 Nov 16 19:31 /scratch/bsonghao/nh3_diabatization_2d_at_mode_7_8_dist0.1_0.3.F81
-rw-r--r-- 1 bsonghao nooijen      16 Nov 16 19:31 /scratch/bsonghao/nh3_diabatization_2d_at_mode_7_8_dist0.1_0.3.F82
-rw-r--r-- 1 bsonghao nooijen   19216 Nov 16 19:31 /scratch/bsonghao/nh3_diabatization_2d_at_mode_7_8_dist0.1_0.3.F83
-rw-r--r-- 1 bsonghao nooijen   29712 Nov 16 19:31 /scratch/bsonghao/nh3_diabatization_2d_at_mode_7_8_dist0.1_0.3.F84
-rw-r--r-- 1 bsonghao nooijen  401576 Nov 16 19:31 /scratch/bsonghao/nh3_diabatization_2d_at_mode_7_8_dist0.1_0.3.F85
-rw-r--r-- 1 bsonghao nooijen  903672 Nov 16 19:31 /scratch/bsonghao/nh3_diabatization_2d_at_mode_7_8_dist0.1_0.3.F86
-rw-r--r-- 1 bsonghao nooijen     656 Nov 16 19:31 /scratch/bsonghao/nh3_diabatization_2d_at_mode_7_8_dist0.1_0.3.F87
-rw-r--r-- 1 bsonghao nooijen   30480 Nov 16 19:32 /scratch/bsonghao/nh3_diabatization_2d_at_mode_7_8_dist0.1_0.3.F88
-rw-r--r-- 1 bsonghao nooijen     240 Nov 16 19:31 /scratch/bsonghao/nh3_diabatization_2d_at_mode_7_8_dist0.1_0.3.F89
-rw-r--r-- 1 bsonghao nooijen       0 Nov 16 19:31 /scratch/bsonghao/nh3_diabatization_2d_at_mode_7_8_dist0.1_0.3.F90
-rw-r--r-- 1 bsonghao nooijen   13760 Nov 16 19:31 /scratch/bsonghao/nh3_diabatization_2d_at_mode_7_8_dist0.1_0.3.F91
-rw-r--r-- 1 bsonghao nooijen   22776 Nov 16 19:31 /scratch/bsonghao/nh3_diabatization_2d_at_mode_7_8_dist0.1_0.3.F92
-rw-r--r-- 1 bsonghao nooijen   23168 Nov 16 19:31 /scratch/bsonghao/nh3_diabatization_2d_at_mode_7_8_dist0.1_0.3.F93
-rw-r--r-- 1 bsonghao nooijen   22776 Nov 16 19:31 /scratch/bsonghao/nh3_diabatization_2d_at_mode_7_8_dist0.1_0.3.F94
-rw-r--r-- 1 bsonghao nooijen   13760 Nov 16 19:31 /scratch/bsonghao/nh3_diabatization_2d_at_mode_7_8_dist0.1_0.3.F95
-rw-r--r-- 1 bsonghao nooijen   29440 Nov 16 19:31 /scratch/bsonghao/nh3_diabatization_2d_at_mode_7_8_dist0.1_0.3.F96
-rw-r--r-- 1 bsonghao nooijen    1184 Nov 16 19:31 /scratch/bsonghao/nh3_diabatization_2d_at_mode_7_8_dist0.1_0.3.F97
-rw-r--r-- 1 bsonghao nooijen    9808 Nov 16 19:31 /scratch/bsonghao/nh3_diabatization_2d_at_mode_7_8_dist0.1_0.3.F98
-rw-r--r-- 1 bsonghao nooijen   30264 Nov 16 19:31 /scratch/bsonghao/nh3_diabatization_2d_at_mode_7_8_dist0.1_0.3.F99
ls: No match.
ls: No match.
ls: No match.
Wed 16 Nov 2022 07:32:02 PM EST
0.285u 0.044s 0:15.76 2.0%	0+0k 48+224io 0pf+0w
