----- GAMESS execution script 'rungms' -----
This job is running on host io002
under operating system Linux at Wed 16 Nov 2022 07:14:32 PM EST
Available scratch disk space (Kbyte units) at beginning of the job is
Filesystem       1K-blocks       Used   Available Use% Mounted on
/dev/sdc1      15378471580 3278917120 11318349060  23% /scratch
GAMESS temporary binary files will be written to /scratch/bsonghao
GAMESS supplementary output files will be written to /home/bsonghao/.gamess_ascii_files/267638
Copying input file nh3_diabatization_2d_at_mode_7_8_dist-0.1_-0.3.inp to your run's scratch directory...
cp nh3_diabatization_2d_at_mode_7_8_dist-0.1_-0.3.inp /scratch/bsonghao/nh3_diabatization_2d_at_mode_7_8_dist-0.1_-0.3.F05
unset echo
/home/bjb2chen/gamess/ddikick.x /home/bjb2chen/gamess/gamess.00.x nh3_diabatization_2d_at_mode_7_8_dist-0.1_-0.3 -ddi 1 1 io002 -scr /scratch/bsonghao

 Distributed Data Interface kickoff program.
 Initiating 1 compute processes on 1 nodes to run the following command:
 /home/bjb2chen/gamess/gamess.00.x nh3_diabatization_2d_at_mode_7_8_dist-0.1_-0.3 

          ******************************************************
          *         GAMESS VERSION = 02 AUG 2018 (R2)         *
          *             FROM IOWA STATE UNIVERSITY             *
          * M.W.SCHMIDT, K.K.BALDRIDGE, J.A.BOATZ, S.T.ELBERT, *
          *   M.S.GORDON, J.H.JENSEN, S.KOSEKI, N.MATSUNAGA,   *
          *          K.A.NGUYEN, S.J.SU, T.L.WINDUS,           *
          *       TOGETHER WITH M.DUPUIS, J.A.MONTGOMERY       *
          *         J.COMPUT.CHEM.  14, 1347-1363(1993)        *
          **************** 64 BIT LINUX VERSION ****************

  SINCE 1993, STUDENTS AND POSTDOCS WORKING AT IOWA STATE UNIVERSITY
  AND ALSO IN THEIR VARIOUS JOBS AFTER LEAVING ISU HAVE MADE IMPORTANT
  CONTRIBUTIONS TO THE CODE:
     IVANA ADAMOVIC, CHRISTINE AIKENS, YURI ALEXEEV, POOJA ARORA,
     ANDREY ASADCHEV, ROB BELL, PRADIPTA BANDYOPADHYAY, JONATHAN BENTZ,
     BRETT BODE, KURT BRORSEN, CALEB CARLIN, GALINA CHABAN, WEI CHEN,
     CHEOL HO CHOI, PAUL DAY, ALBERT DEFUSCO, NUWAN DESILVA, TIM DUDLEY,
     DMITRI FEDOROV, ALEX FINDLATER, GRAHAM FLETCHER, MARK FREITAG,
     KURT GLAESEMANN, ANASTASIA GUININA,
     DAN KEMP, GRANT MERRILL, NORIYUKI MINEZAWA, JONATHAN MULLIN,
     TAKESHI NAGATA, SEAN NEDD, HEATHER NETZLOFF, BOSILJKA NJEGIC, RYAN OLSON,
     MIKE PAK, BUU PHAM,
     SPENCER PRUITT, LUKE ROSKOP, JIM SHOEMAKER, LYUDMILA SLIPCHENKO,
     TONY SMITH, SAROM SOK LEANG, JIE SONG, TETSUYA TAKETSUGU, SIMON WEBB,
     PENG XU, SOOHAENG YOO, FEDERICO ZAHARIEV

  ADDITIONAL CODE HAS BEEN PROVIDED BY COLLABORATORS IN OTHER GROUPS:
     IOWA STATE UNIVERSITY:
          JOE IVANIC, AARON WEST, LAIMUTIS BYTAUTAS, KLAUS RUEDENBERG
     UNIVERSITY OF TOKYO: KIMIHIKO HIRAO, TAKAHITO NAKAJIMA,
          TAKAO TSUNEDA, MUNEAKI KAMIYA, SUSUMU YANAGISAWA,
          KIYOSHI YAGI, MAHITO CHIBA, SEIKEN TOKURA, NAOAKI KAWAKAMI
     UNIVERSITY OF AARHUS: FRANK JENSEN
     UNIVERSITY OF IOWA: VISVALDAS KAIRYS, HUI LI
     NATIONAL INST. OF STANDARDS AND TECHNOLOGY: WALT STEVENS, DAVID GARMER
     UNIVERSITY OF PISA: BENEDETTA MENNUCCI, JACOPO TOMASI
     UNIVERSITY OF MEMPHIS: HENRY KURTZ, PRAKASHAN KORAMBATH
     UNIVERSITY OF ALBERTA: TOBY ZENG, MARIUSZ KLOBUKOWSKI
     UNIVERSITY OF NEW ENGLAND: MARK SPACKMAN
     MIE UNIVERSITY: HIROAKI UMEDA
     NAT. INST. OF ADVANCED INDUSTRIAL SCIENCE AND TECHNOLOGY: KAZUO KITAURA
     MICHIGAN STATE UNIVERSITY:
          KAROL KOWALSKI, MARTA WLOCH, JEFFREY GOUR, JESSE LUTZ,
          WEI LI, JUN SHEN, J. EMILIANO DEUSTUA, PIOTR PIECUCH
     UNIVERSITY OF MINNESOTA:
          YINAN SHU
     UNIVERSITY OF SILESIA: MONIKA MUSIAL, STANISLAW KUCHARSKI
     FACULTES UNIVERSITAIRES NOTRE-DAME DE LA PAIX:
          OLIVIER QUINET, BENOIT CHAMPAGNE
     UNIVERSITY OF CALIFORNIA - SANTA BARBARA: BERNARD KIRTMAN
     INSTITUTE FOR MOLECULAR SCIENCE:
          KAZUYA ISHIMURA, MICHIO KATOUDA, AND SHIGERU NAGASE
     UNIVERSITY OF NOTRE DAME: ANNA POMOGAEVA, DAN CHIPMAN
     KYUSHU UNIVERSITY:
          HARUYUKI NAKANO,
          FENG LONG GU, JACEK KORCHOWIEC, MARCIN MAKOWSKI, AND YURIKO AOKI,
          HIROTOSHI MORI AND EISAKU MIYOSHI
     PENNSYLVANIA STATE UNIVERSITY:
          TZVETELIN IORDANOV, CHET SWALINA, JONATHAN SKONE,
          SHARON HAMMES-SCHIFFER
     WASEDA UNIVERSITY:
          MASATO KOBAYASHI, TOMOKO AKAMA, TSUGUKI TOUMA,
          TAKESHI YOSHIKAWA, YASUHIRO IKABATA, JUNJI SEINO,
          YUYA NAKAJIMA, HIROMI NAKAI
     NANJING UNIVERSITY: SHUHUA LI
     UNIVERSITY OF NEBRASKA:
          PEIFENG SU, DEJUN SI, NANDUN THELLAMUREGE, YALI WANG, HUI LI
     UNIVERSITY OF ZURICH: ROBERTO PEVERATI, KIM BALDRIDGE
     N. COPERNICUS UNIVERSITY AND JACKSON STATE UNIVERSITY:
          MARIA BARYSZ
     UNIVERSITY OF COPENHAGEN: Jimmy Kromann, CASPER STEINMANN
     TOKYO INSTITUTE OF TECHNOLOGY: HIROYA NAKATA
     NAGOYA UNIVERSITY: YOSHIO NISHIMOTO, STEPHAN IRLE
     MOSCOW STATE UNIVERSITY: VLADIMIR MIRONOV

 EXECUTION OF GAMESS BEGUN Wed Nov 16 19:14:33 2022

            ECHO OF THE FIRST FEW INPUT CARDS -
 INPUT CARD> $system kdiag=3 mwords=100 memddi=1000 parall=.t. $end                         
 INPUT CARD> $contrl runtyp=energy ispher=1 $end                                            
 INPUT CARD> $contrl icut=9 itol=20 inttyp=rysquad qmttol=1.0d-05 nosym=1 $end              
 INPUT CARD> $scf    npunch=2 conv=1.0d-06 dirscf=.t.      $end                             
 INPUT CARD> $contrl scftyp=mcscf  mult=2 maxit=200 icharg=1 mplevl=2 $end                  
 INPUT CARD> $guess  guess=moread norb=29 purify=.t. $end                                   
 INPUT CARD> $basis  gbasis=ccd $end                                                        
 INPUT CARD> $mcscf  cistep=gmcci fullnr=.t. finci=mos                                      
 INPUT CARD>         acurcy=1.d-6 maxit=100 $end                                            
 INPUT CARD> $trans  dirtrf=.t. $end                                                        
 INPUT CARD> $mrmp   mrpt=gmcpt rdvecs=.f. $end                                             
 INPUT CARD> $gmcpt  nmofzc=0 nmodoc=1 nmoact=7 nelact=7 stsym(1)=A                         
 INPUT CARD>         reftyp=ormas nspace=1 mstart(1)=2 mine(1)=7 maxe(1)=7                  
 INPUT CARD>         kstate(1)=1,1,1                                                        
 INPUT CARD>         wstate(1)=1,1,1                                                        
 INPUT CARD>         iwgt=0 thrwgt=-1.0 krot=.f. kszdoe=.f. knospn=.f.                      
 INPUT CARD>         thrde=-1.0 edshft=0.02 $end                                            
 INPUT CARD> $data                                                                          
 INPUT CARD> NH3+ 3 states calculation at NH3 structure.                                    
 INPUT CARD> c1                                                                             
 INPUT CARD>N 7.0 0.018686754000000003 0.006228902999999999 -0.1693805222                   
 INPUT CARD>H 1.0 -0.656279222 0.6845432068 0.27319480110000005                             
 INPUT CARD>H 1.0 -0.5798538990000001 -0.6981201798000001 0.3189162821                      
 INPUT CARD>H 1.0 0.976475666 -0.07297574999999998 0.1772671201                             
 INPUT CARD>$end                                                                            
 INPUT CARD>--- OPTIMIZED RHF      MO-S --- GENERATED AT Mon Nov 14 16:47:08 2022           
 INPUT CARD>E=      -56.3825050291, E(NUC)=   11.8429239490                                 
 INPUT CARD> $VEC                                                                           
 INPUT CARD> 1  1-1.00134066E+00-2.25158504E-03 3.44925845E-03 0.00000000E+00 0.00000000E+00
 INPUT CARD> 1  2-2.13170927E-03 0.00000000E+00 0.00000000E+00 6.57129898E-04-6.87950443E-05
 INPUT CARD> 1  3-6.87950443E-05 1.37590089E-04 0.00000000E+00 0.00000000E+00 0.00000000E+00
 INPUT CARD> 1  4 3.25502815E-04-4.84772356E-04 3.62525460E-04-6.27912517E-04-3.45956485E-04
 INPUT CARD> 1  5 3.25502815E-04-4.84772356E-04 3.62525460E-04 6.27912517E-04-3.45956485E-04
 INPUT CARD> 1  6 3.25502815E-04-4.84772356E-04-7.25050921E-04 0.00000000E+00-3.45956485E-04
 INPUT CARD> 2  1 1.31286642E-02-4.05911371E-01-2.82090992E-01 0.00000000E+00 0.00000000E+00
 INPUT CARD> 2  2-7.71489043E-02 0.00000000E+00 0.00000000E+00 9.73717494E-03 6.62450916E-04
 INPUT CARD> 2  3 6.62450916E-04-1.32490183E-03 0.00000000E+00 0.00000000E+00 0.00000000E+00
 INPUT CARD> 2  4-1.96090317E-01-1.96656153E-02-1.74855877E-02 3.02859263E-02 8.68214399E-03
 INPUT CARD> 2  5-1.96090317E-01-1.96656153E-02-1.74855877E-02-3.02859263E-02 8.68214399E-03
 INPUT CARD> 2  6-1.96090317E-01-1.96656153E-02 3.49711754E-02 0.00000000E+00 8.68214399E-03
 INPUT CARD> 3  1 0.00000000E+00 0.00000000E+00 0.00000000E+00 4.48608762E-01 0.00000000E+00
 INPUT CARD> 3  2 0.00000000E+00 2.18692520E-01 0.00000000E+00 0.00000000E+00 1.30198027E-02
 INPUT CARD> 3  3-1.30198027E-02 0.00000000E+00 0.00000000E+00 2.71832968E-02 0.00000000E+00
 INPUT CARD> 3  4-1.85332726E-01-7.03958951E-02 8.47929477E-03 1.95242443E-02 8.32835058E-03
 INPUT CARD> 3  5-1.85332726E-01-7.03958951E-02 8.47929477E-03-1.95242443E-02 8.32835058E-03
 INPUT CARD> 3  6 3.70665453E-01 1.40791790E-01-2.53376884E-02 0.00000000E+00-1.66567012E-02
 INPUT CARD> 4  1 0.00000000E+00 0.00000000E+00 0.00000000E+00 0.00000000E+00 4.48608762E-01
 INPUT CARD> 4  2 0.00000000E+00 0.00000000E+00 2.18692520E-01 0.00000000E+00 0.00000000E+00
 INPUT CARD> 4  3 0.00000000E+00 0.00000000E+00-1.50339731E-02 0.00000000E+00 2.71832968E-02
 INPUT CARD> 4  4 3.21005698E-01 1.21929267E-01 1.95242443E-02-1.40653607E-02-1.44251263E-02
  100000000 WORDS OF MEMORY AVAILABLE

     BASIS OPTIONS
     -------------
     GBASIS=CCD          IGAUSS=       0      POLAR=NONE    
     NDFUNC=       0     NFFUNC=       0     DIFFSP=       F
     NPFUNC=       0      DIFFS=       F     BASNAM=        


     RUN TITLE
     ---------
  NH3+ 3 states calculation at NH3 structure.                                    

 THE POINT GROUP OF THE MOLECULE IS C1      
 THE ORDER OF THE PRINCIPAL AXIS IS     0

 ATOM      ATOMIC                      COORDINATES (BOHR)
           CHARGE         X                   Y                   Z
 N           7.0     0.0353128447        0.0117709199       -0.3200827746
 H           1.0    -1.2401879010        1.2935990876        0.5162633153
 H           1.0    -1.0957649820       -1.3192558463        0.6026643862
 H           1.0     1.8452714424       -0.1379041712        0.3349862836

          INTERNUCLEAR DISTANCES (ANGS.)
          ------------------------------

                1 N          2 H          3 H          4 H     

   1 N       0.0000000    1.0543065 *  1.0453671 *  1.0216641 *
   2 H       1.0543065 *  0.0000000    1.3855285 *  1.8024776 *
   3 H       1.0453671 *  1.3855285 *  0.0000000    1.6831612 *
   4 H       1.0216641 *  1.8024776 *  1.6831612 *  0.0000000  

  * ... LESS THAN  3.000


     ATOMIC BASIS SET
     ----------------
 THE CONTRACTED PRIMITIVE FUNCTIONS HAVE BEEN UNNORMALIZED
 THE CONTRACTED BASIS FUNCTIONS ARE NOW NORMALIZED TO UNITY

  SHELL TYPE  PRIMITIVE        EXPONENT          CONTRACTION COEFFICIENT(S)

 N         

      1   S       1          9046.0000000    0.000699617413
      1   S       2          1357.0000000    0.005386054630
      1   S       3           309.3000000    0.027391021189
      1   S       4            87.7300000    0.103150591982
      1   S       5            28.5600000    0.278570663317
      1   S       6            10.2100000    0.448294849454
      1   S       7             3.8380000    0.278085928395
      1   S       8             0.7466000    0.015431561233

      2   S       9          9046.0000000   -0.000304990096
      2   S      10          1357.0000000   -0.002408026379
      2   S      11           309.3000000   -0.011944448725
      2   S      12            87.7300000   -0.048925992909
      2   S      13            28.5600000   -0.134472724725
      2   S      14            10.2100000   -0.315112577700
      2   S      15             3.8380000   -0.242857832550
      2   S      16             0.7466000    1.094382206854

      3   S      17             0.2248000    1.000000000000

      4   P      18            13.5500000    0.058905676772
      4   P      19             2.9170000    0.320461106714
      4   P      20             0.7973000    0.753042061792

      5   P      21             0.2185000    1.000000000000

      6   D      22             0.8170000    1.000000000000

 H         

      7   S      23            13.0100000    0.033498726390
      7   S      24             1.9620000    0.234800801174
      7   S      25             0.4446000    0.813682957883

      8   S      26             0.1220000    1.000000000000

      9   P      27             0.7270000    1.000000000000

 H         

     10   S      28            13.0100000    0.033498726390
     10   S      29             1.9620000    0.234800801174
     10   S      30             0.4446000    0.813682957883

     11   S      31             0.1220000    1.000000000000

     12   P      32             0.7270000    1.000000000000

 H         

     13   S      33            13.0100000    0.033498726390
     13   S      34             1.9620000    0.234800801174
     13   S      35             0.4446000    0.813682957883

     14   S      36             0.1220000    1.000000000000

     15   P      37             0.7270000    1.000000000000

 TOTAL NUMBER OF BASIS SET SHELLS             =   15
 NUMBER OF CARTESIAN GAUSSIAN BASIS FUNCTIONS =   30
 NOTE: THIS RUN WILL RESTRICT THE MO VARIATION SPACE TO SPHERICAL HARMONICS.
 THE NUMBER OF ORBITALS KEPT IN THE VARIATIONAL SPACE WILL BE PRINTED LATER.
 NUMBER OF ELECTRONS                          =    9
 CHARGE OF MOLECULE                           =    1
 SPIN MULTIPLICITY                            =    2
 NUMBER OF OCCUPIED ORBITALS (ALPHA)          =    5
 NUMBER OF OCCUPIED ORBITALS (BETA )          =    4
 TOTAL NUMBER OF ATOMS                        =    4
 THE NUCLEAR REPULSION ENERGY IS       11.6725244767

     $CONTRL OPTIONS
     ---------------
 SCFTYP=MCSCF        RUNTYP=ENERGY       EXETYP=RUN     
 MPLEVL=       2     CITYP =NONE         CCTYP =NONE         VBTYP =NONE    
 DFTTYP=NONE         TDDFT =NONE    
 MULT  =       2     ICHARG=       1     NZVAR =       0     COORD =UNIQUE  
 PP    =NONE         RELWFN=NONE         LOCAL =NONE         NUMGRD=       F
 ISPHER=       1     NOSYM =       1     MAXIT =     200     UNITS =ANGS    
 PLTORB=       F     MOLPLT=       F     AIMPAC=       F     FRIEND=        
 NPRINT=       7     IREST =       0     GEOM  =INPUT   
 NORMF =       0     NORMP =       0     ITOL  =      20     ICUT  =       9
 INTTYP=RYSQUAD      GRDTYP=BEST         QMTTOL= 1.0E-05

     $SYSTEM OPTIONS
     ---------------
  REPLICATED MEMORY=   100000000 WORDS (ON EVERY NODE).
 DISTRIBUTED MEMDDI=        1000 MILLION WORDS IN AGGREGATE,
 MEMDDI DISTRIBUTED OVER   1 PROCESSORS IS  1000000000 WORDS/PROCESSOR.
 TOTAL MEMORY REQUESTED ON EACH PROCESSOR=  1100000000 WORDS.
 TIMLIM=      525600.00 MINUTES, OR     365.0 DAYS.
 PARALL= T  BALTYP=  DLB     KDIAG=    3  COREFL= F
 MXSEQ2=     300 MXSEQ3=     150  mem10=         0

          ----------------
          PROPERTIES INPUT
          ----------------

     MOMENTS            FIELD           POTENTIAL          DENSITY
 IEMOM =       1   IEFLD =       0   IEPOT =       0   IEDEN =       0
 WHERE =COMASS     WHERE =NUCLEI     WHERE =NUCLEI     WHERE =NUCLEI  
 OUTPUT=BOTH       OUTPUT=BOTH       OUTPUT=BOTH       OUTPUT=BOTH    
 IEMINT=       0   IEFINT=       0                     IEDINT=       0
                                                       MORB  =       0

     -------------------------------
     INTEGRAL TRANSFORMATION OPTIONS
     -------------------------------
     NWORD  =            0
     CUTOFF = 1.0E-09     MPTRAN =       0
     DIRTRF =       T     AOINTS =DUP     

          ----------------------
          MCSCF INPUT PARAMETERS
          ----------------------
 CONVERGER SELECTION: FOCAS = F  SOSCF = F  FULLNR = T  QUD = F  JACOBI = F
 SECULAR EQUATION METHOD CISTEP = GMCCI   
 --- GENERAL INPUT OPTIONS:
 MAXIT =     100  MICIT =       1  ACURCY= 1.000E-06
 DAMP  =   0.000  CANONC=       T  ENGTOL= 1.000E-10
 EKT   =       F  NPUNCH=       2  NWORD =         0
 REGENERATE CI AFTER CONVERGENCE = NONE    
 DIABATIZATION AFTER CONVERGENCE =        F
 --- INPUT FOR FULLNR CONVERGER:
 METHOD=DM2       FORS  =       F  DROPC =       T
 LINSER=       F  FCORE =       F  NORB  =      30

          ----------------------
          INTEGRAL INPUT OPTIONS
          ----------------------
 NOPK  =       1 NORDER=       0 SCHWRZ=       T

 ------------------------------------------
 MULTIREFERENCE PERTURBATION THEORY CONTROL
 ------------------------------------------
 MRPT=GMCPT    READ CONVERGED MCSCF VECTORS= F


     ------------------------------------------
     THE POINT GROUP IS C1 , NAXIS= 1, ORDER= 1
     ------------------------------------------

 -- VARIATIONAL SPACE WILL BE RESTRICTED TO PURE SPHERICAL HARMONICS ONLY --
 AFTER EXCLUDING CONTAMINANT COMBINATIONS FROM THE CARTESIAN GAUSSIAN BASIS
 SET, THE NUMBER OF SPHERICAL HARMONICS KEPT IN THE VARIATION SPACE IS   29

     DIMENSIONS OF THE SYMMETRY SUBSPACES ARE
 A   =   29

 ..... DONE SETTING UP THE RUN .....
 CPU     0: STEP CPU TIME=     0.03 TOTAL CPU TIME=          0.0 (      0.0 MIN)
 TOTAL WALL CLOCK TIME=          0.0 SECONDS, CPU UTILIZATION IS    75.00%

          ********************
          1 ELECTRON INTEGRALS
          ********************
 TIME TO DO   DIPOLE INTEGRALS=      0.00
 ...... END OF ONE-ELECTRON INTEGRALS ......
 CPU     0: STEP CPU TIME=     0.00 TOTAL CPU TIME=          0.0 (      0.0 MIN)
 TOTAL WALL CLOCK TIME=          0.0 SECONDS, CPU UTILIZATION IS    75.00%

          -------------
          GUESS OPTIONS
          -------------
          GUESS =MOREAD            NORB  =      29          NORDER=       0
          MIX   =       F          PRTMO =       F          PUNMO =       F
          TOLZ  = 1.0E-08          TOLE  = 1.0E-05
          SYMDEN=       F          PURIFY=       T

 INITIAL GUESS ORBITALS GENERATED BY MOREAD   ROUTINE.

 STATISTICS FOR GENERATION OF SYMMETRY ORBITAL -Q- MATRIX
 NUMBER OF CARTESIAN ATOMIC ORBITALS=         30
 NUMBER OF SPHERICAL CONTAMINANTS DROPPED=     1
 NUMBER OF LINEARLY DEPENDENT MOS DROPPED=     0
 TOTAL NUMBER OF MOS IN VARIATION SPACE=      29
 ORBITAL PURIFICATION WILL OCCUR

 SYMMETRIES FOR INITIAL GUESS ORBITALS FOLLOW.   BOTH SET(S).
     5 ORBITALS ARE OCCUPIED (    1 CORE ORBITALS).
     1=A        2=A        3=A        4=A        5=A        6=A        7=A   
     8=A        9=A       10=A       11=A       12=A       13=A       14=A   
    15=A       16=A       17=A       18=A       19=A       20=A       21=A   
    22=A       23=A       24=A       25=A       26=A       27=A       28=A   
    29=A   
 ...... END OF INITIAL ORBITAL SELECTION ......
 CPU     0: STEP CPU TIME=     0.01 TOTAL CPU TIME=          0.0 (      0.0 MIN)
 TOTAL WALL CLOCK TIME=          0.0 SECONDS, CPU UTILIZATION IS    80.00%

                    ----------------------
                    AO INTEGRAL TECHNOLOGY
                    ----------------------
     S,P,L SHELL ROTATED AXIS INTEGRALS, REPROGRAMMED BY
        KAZUYA ISHIMURA (IMS) AND JOSE SIERRA (SYNSTAR).
     S,P,D,L SHELL ROTATED AXIS INTEGRALS PROGRAMMED BY
        KAZUYA ISHIMURA (INSTITUTE FOR MOLECULAR SCIENCE).
     S,P,D,F,G SHELL TO TOTAL QUARTET ANGULAR MOMENTUM SUM 5,
        ERIC PROGRAM BY GRAHAM FLETCHER (ELORET AND NASA ADVANCED
        SUPERCOMPUTING DIVISION, AMES RESEARCH CENTER).
     S,P,D,F,G,L SHELL GENERAL RYS QUADRATURE PROGRAMMED BY
        MICHEL DUPUIS (PACIFIC NORTHWEST NATIONAL LABORATORY).

          --------------------
          2 ELECTRON INTEGRALS
          --------------------

 DIRECT SCF METHOD SKIPS INTEGRAL STORAGE ON DISK.
 DIRECT TRANSFORMATION SKIPS AO INTEGRAL STORAGE ON DISK.
  ...... END OF TWO-ELECTRON INTEGRALS .....
 STEP CPU TIME =     0.02 TOTAL CPU TIME =          0.1 (      0.0 MIN)
 TOTAL WALL CLOCK TIME=          0.1 SECONDS, CPU UTILIZATION IS    85.71%
 DDI: Creating Array [0] - 900 x 36 = 32400 words.
 DDI: Creating Array [1] - 21 x 288 = 6048 words.
 DDI: Creating Array [2] - 36 x 36 = 1296 words.
 DDI: Creating Array [3] - 465 x 36 = 16740 words.

          -----------------
          MCSCF CALCULATION
          -----------------

 ----- NUCLEAR ENERGY ----- =        11.6725244767

     -------------------------------------------------
     GMC-PT/GMC-QDPT or general MCSCF input parameters
     -------------------------------------------------
 # of frozen core orbs. =         0 ->         0
 # of doubly occ. orbs. =         1
 # of active      orbs. =         7
 # of virtual     orbs. =        21
 # of active electrons  =         7
 # of states in CI      =         3
 Highest state in CI    =         3
 kstate =  1 1 1
 avecoe =  0.333 0.333 0.333
 State symmetry           = A           
 Assigned symmetry number = 1

 <<<Act. MO sym.: 1111111

 <<<Division of 1-ext.:  0
 <<<Division of 2-ext.:  0

 *** Reference space

 Reference type: ORMAS (= Occupation restricted multiple active space)
 # of orbitals          =  7
 # of minimum electrons =  7
 # of maximum electrons =  7
 State symmetry    =    1 (input)
 2*Sz              =    1 (input)
 Spin multiplicity =    2 (input)
 Dimension of reference space =      1225  (from      3432 walks)

 Dimension of reference space =      1225  (from      1225 walks)

 <<<Ionized spaces for Ref-CI:
      0:         1225 /   -1-0:         1960 /  0-1-0:         2891

 EVALUATING EXCHANGE INTEGRALS FOR DIRECT INTEGRAL TRANSFORMATION
 SCHWARZ INEQUALITY OVERHEAD:       465 INTEGRALS, T=        0.01

     --------------------------------------------
     PARTIAL TWO ELECTRON INTEGRAL TRANSFORMATION
     --------------------------------------------

 NUMBER OF CORE MOLECULAR ORBITALS     =    1
 NUMBER OF OCCUPIED MOLECULAR ORBITALS =    8
 TOTAL NUMBER OF MOLECULAR ORBITALS    =   29
 TOTAL NUMBER OF ATOMIC ORBITALS       =   30
 THRESHOLD FOR KEEPING TRANSFORMED 2E- INTEGRALS = 1.000E-09

 -------------------------------     ------------------------------
 DISTRIBUTED DATA TRANSFORMATION     PROGRAM WRITTEN BY G. FLETCHER
 -------------------------------     ------------------------------

 THE DISTRIBUTED MEMORY REQUIRED FOR THIS STEP IS MEMDDI=         1 MWORDS
 CREATING DISTRIBUTED STORAGE FOR [VIR OCC|VIR OCC] INTEGRALS
 CREATING DISTRIBUTED STORAGE FOR [VIR OCC|OCC OCC] INTEGRALS
 CREATING DISTRIBUTED STORAGE FOR [OCC OCC|OCC OCC] INTEGRALS
 CREATING DISTRIBUTED STORAGE FOR [VIR VIR|OCC OCC] INTEGRALS
 FOR    1 PROCESSORS, THE REPLICATED MEMORY NEEDED IS       73700 WORDS.
 SCHWARZ INEQUALITY OVERHEAD:       465 INTEGRALS, T=        0.00

      DIRECT 4-INDEX TRANSFORMATION 
      SCHWARZ INEQUALITY TEST SKIPPED          0 INTEGRAL BLOCKS
 ----- FROZEN CORE ENERGY =       -47.7842878768
 ... END OF INTEGRAL TRANSFORMATION ...
 CPU     0: STEP CPU TIME=     0.22 TOTAL CPU TIME=          0.3 (      0.0 MIN)
 TOTAL WALL CLOCK TIME=          0.3 SECONDS, CPU UTILIZATION IS    96.55%

     --------------------------------     -----------------------------
     MCHF NEWTON-RAPHSON OPTIMIZATION     CODE WRITTEN BY MICHEL DUPUIS
     --------------------------------     -----------------------------
     PARALLEL VERSION WRITTEN BY G. FLETCHER (ELORET)
     NASA ADVANCED SUPERCOMPUTING DIVISION, AMES RESEARCH CENTER

 NUMBER OF INDEPENDENT ORBITAL ROTATION PARAMETERS =   175
 ..... DONE SOLVING NEWTON-RAPHSON EQUATIONS .....
 CPU     0: STEP CPU TIME=     0.81 TOTAL CPU TIME=          1.1 (      0.0 MIN)
 TOTAL WALL CLOCK TIME=          1.1 SECONDS, CPU UTILIZATION IS    99.09%
 ..... DONE WITH NTN-RPH ORBITAL ROTATIONS ..... 
 CPU     0: STEP CPU TIME=     0.00 TOTAL CPU TIME=          1.1 (      0.0 MIN)
 TOTAL WALL CLOCK TIME=          1.1 SECONDS, CPU UTILIZATION IS    99.09%
 MAXIMUM MEMORY USED BY NTN-RPH CODE WAS     57645 WORDS.

 ITER     TOTAL ENERGY      DEL(E)  LAGRANGIAN ASYMMETRY   SQCDF  MICIT   DAMP
   1      -55.670320556 -0.670320556  0.139587   13    3 1.642E-01  1   0.0000
   2      -55.708320680 -0.038000124  0.024237   12    5 4.498E-01  1   0.0000
   3      -55.740685843 -0.032365163  0.012232   12    5 2.129E-01  1   0.0257
   4      -55.754126937 -0.013441095  0.004102   11    6 3.783E-02  1   0.0044
   5      -55.755758265 -0.001631327  0.000747   12    5 1.133E-03  1   0.0000
   6      -55.755807463 -0.000049198  0.000251   12    5 9.661E-05  1   0.0000
   7      -55.755812455 -0.000004993  0.000113   12    5 1.377E-05  1   0.0000
   8      -55.755813206 -0.000000751  0.000050   12    5 2.165E-06  1   0.0000
   9      -55.755813327 -0.000000121  0.000021   12    5 3.626E-07  1   0.0000
  10      -55.755813348 -0.000000021  0.000008   12    5 6.656E-08  1   0.0000
  11      -55.755813351 -0.000000004  0.000003   12    5 1.398E-08  1   0.0000
  12      -55.755813352 -0.000000001  0.000001   22    5 3.476E-09  1   0.0000
  13      -55.755813352 -0.000000000  0.000001   22    5 1.003E-09  1   0.0000

          --------------------
          LAGRANGIAN CONVERGED
          --------------------

 FINAL MCSCF ENERGY IS      -55.7558133524 AFTER  13 ITERATIONS

 -MCCI- BASED ON OPTIMIZED ORBITALS
 ----------------------------------

 PLEASE NOTE: IF THE ACTIVE ORBITALS ARE CANONICALIZED BELOW,
 THE FOLLOWING CI EXPANSION COEFFICIENTS AND THE DENSITY DO NOT
 CORRESPOND TO THE PRINTED ORBITALS.  THE PRINTED EXPANSIONS MATCH
 THE ORBITALS USED DURING THE LAST ITERATION.  IF YOU WISH TO SEE
 CI EXPANSIONS BASED ON THE CANONICAL (OR NATURAL) ORBITALS, YOU
 MUST RUN A CI CALCULATION WITH THAT ORBITAL CHOICE READ IN $VEC.

 Averaged energy =     -55.755813352

 State #    1  Energy =     -55.897122569  S =  0.500

      Det      Coef    Occupancy (Ignoring core)
      ---      ----    --------- --------- -----
        1   -0.950039  11110001110000
        2   -0.053217  11101001110000
        5    0.061179  01111001110000
        8    0.134509  10110101110000
       17    0.120585  11010011110000
       36    0.050094  11110001101000
       71   -0.070215  11110001011000
      386   -0.111060  11110001010010
      393   -0.050239  10110101010010
      701   -0.089098  11110001100001
      717   -0.070205  11010011100001

 State #    2  Energy =     -55.736368321  S =  0.500

      Det      Coef    Occupancy (Ignoring core)
      ---      ----    --------- --------- -----
        1    0.055249  11110001110000
       36    0.963186  11110001101000
       40   -0.056428  01111001101000
       43   -0.100839  10110101101000
       52   -0.062128  11010011101000
       71   -0.094230  11110001011000
      281    0.054920  11110000101100
      456    0.102309  11110001001010
      463    0.054262  10110101001010

 State #    3  Energy =     -55.633949167  S =  0.500

      Det      Coef    Occupancy (Ignoring core)
      ---      ----    --------- --------- -----
        1   -0.063412  11110001110000
       36    0.098620  11110001101000
       71    0.963184  11110001011000
       78   -0.068748  10110101011000
       87   -0.074407  11010011011000
      316    0.066568  11110000011100
      806   -0.089723  11110001001001
      822   -0.074223  11010011001001

 DENSITY MATRIX OVER ACTIVE MO-S

             1           2           3           4           5

    1    1.9791563
    2   -0.0060154   1.6364148
    3   -0.0041114   0.0001022   1.6365443
    4    0.0033306  -0.0002704  -0.0006044   1.6556804
    5    0.0955603   0.0055908   0.0055452   0.0386257   0.0246186
    6    0.0061090  -0.1545771   0.0020568  -0.0104095  -0.0002742
    7    0.0002185  -0.0021927   0.1257619   0.0074351   0.0013112

             6           7

    6    0.0335412
    7   -0.0004368   0.0340443

 FORMING THE "STANDARD FOCK OPERATOR" IN DIRECT AO INTEGRAL MODE...
 ONLY THE    1 CORE AND   21 VIRTUAL ORBITALS WILL BE CANONICALIZED

          ----------------------
          MCSCF NATURAL ORBITALS
          ----------------------

                      1          2          3          4          5
                  -15.9871     1.9841     1.6568     1.6510     1.6463
                     A          A          A          A          A   
    1  N  1  S    1.001315   0.008372  -0.011076   0.001577   0.000805
    2  N  1  S   -0.001768   0.438357  -0.176586   0.060755   0.020547
    3  N  1  S   -0.006365   0.289549  -0.279165   0.083762   0.030600
    4  N  1  X    0.000083  -0.018360   0.108448   0.475266   0.043042
    5  N  1  Y   -0.000012  -0.009214   0.015247  -0.041473   0.518701
    6  N  1  Z    0.001166   0.096471   0.586585  -0.092161  -0.011275
    7  N  1  X   -0.000028   0.001739   0.059998   0.170409   0.022310
    8  N  1  Y   -0.000022   0.001723   0.015406  -0.013978   0.253849
    9  N  1  Z   -0.000454   0.006763   0.380371  -0.045655   0.001077
   10  N  1 XX    0.000358   0.000879  -0.010905   0.009047   0.002425
   11  N  1 YY   -0.000162  -0.001909  -0.013094  -0.004703  -0.001843
   12  N  1 ZZ   -0.000195   0.001030   0.023999  -0.004345  -0.000582
   13  N  1 XY   -0.000085  -0.000152  -0.000376  -0.000903  -0.013761
   14  N  1 XZ   -0.000075  -0.001518   0.003423   0.023926   0.002456
   15  N  1 YZ   -0.000042  -0.000179  -0.000310  -0.001483   0.025500
   16  H  2  S   -0.001933   0.190194   0.075982  -0.249150   0.289302
   17  H  2  S    0.000428   0.002439   0.022579  -0.031125   0.058086
   18  H  2  X   -0.000630   0.024145   0.010185  -0.004218   0.026751
   19  H  2  Y    0.000728  -0.025580  -0.010319   0.027908  -0.008678
   20  H  2  Z    0.000455  -0.009470   0.020733   0.008694  -0.014480
   21  H  3  S   -0.001960   0.201024   0.077712  -0.193289  -0.332661
   22  H  3  S    0.000369   0.005464   0.020680  -0.023906  -0.065727
   23  H  3  X   -0.000583   0.022933   0.010583   0.005047  -0.024440
   24  H  3  Y   -0.000742   0.027133   0.012514  -0.024754  -0.014477
   25  H  3  Z    0.000474  -0.012131   0.020456   0.006560   0.017463
   26  H  4  S   -0.002117   0.182897   0.162467   0.353339   0.019266
   27  H  4  S    0.000598   0.000530   0.030474   0.038955   0.005130
   28  H  4  X    0.001097  -0.037187  -0.020509  -0.032281   0.000948
   29  H  4  Y   -0.000060   0.001988   0.001692   0.002038   0.019764
   30  H  4  Z    0.000414  -0.005257   0.016491  -0.018965  -0.001333

                      6          7          8
                    0.0244     0.0191     0.0184
                     A          A          A   
    1  N  1  S    0.042220   0.194917  -0.167836
    2  N  1  S    0.131533   0.636964  -0.513328
    3  N  1  S   -0.004588   0.166259  -0.035175
    4  N  1  X    0.113749  -0.539340  -0.769940
    5  N  1  Y    0.845353  -0.035100   0.184416
    6  N  1  Z    0.051145   0.596298  -0.322749
    7  N  1  X    0.001220  -0.074183  -0.051827
    8  N  1  Y    0.007328  -0.009440   0.016854
    9  N  1  Z   -0.012187  -0.074554   0.059326
   10  N  1 XX   -0.010159  -0.028322  -0.001729
   11  N  1 YY    0.009509   0.037006   0.002378
   12  N  1 ZZ    0.000650  -0.008684  -0.000649
   13  N  1 XY    0.029799   0.000344  -0.008908
   14  N  1 XZ   -0.001433   0.048428   0.031863
   15  N  1 YZ   -0.026594   0.005809  -0.013404
   16  H  2  S   -0.623813  -0.586550  -0.153559
   17  H  2  S   -0.130968  -0.079162  -0.052849
   18  H  2  X   -0.049046  -0.032053   0.012344
   19  H  2  Y    0.031380   0.070302   0.008239
   20  H  2  Z    0.010102  -0.016973   0.000848
   21  H  3  S    0.606075  -0.626706   0.078345
   22  H  3  S    0.138461  -0.086346  -0.001634
   23  H  3  X    0.035271  -0.026896   0.034291
   24  H  3  Y    0.027996  -0.074742   0.004692
   25  H  3  Z   -0.014300  -0.011208   0.000428
   26  H  4  S   -0.163876  -0.061899   0.890492
   27  H  4  S   -0.024880   0.023479   0.139105
   28  H  4  X    0.015206   0.026509  -0.095464
   29  H  4  Y   -0.015840  -0.000447   0.003238
   30  H  4  Z    0.001993  -0.004719   0.011133

          ------------------------
          MCSCF OPTIMIZED ORBITALS
          ------------------------

                      1          2          3          4          5
                  -15.9871     0.0000     0.0000     0.0000     0.0000
                     A          A          A          A          A   
    1  N  1  S    1.001315  -0.003789  -0.005766  -0.000811  -0.017402
    2  N  1  S   -0.001768   0.402031   0.009317   0.005263  -0.197637
    3  N  1  S   -0.006365   0.287027   0.038011   0.019131  -0.288307
    4  N  1  X    0.000083  -0.003934   0.396830   0.011363   0.023617
    5  N  1  Y   -0.000012  -0.002964   0.001902   0.451718   0.007140
    6  N  1  Z    0.001166   0.053303   0.002967  -0.000301   0.579497
    7  N  1  X   -0.000028   0.006723   0.170490   0.011192   0.031280
    8  N  1  Y   -0.000022   0.005177   0.007109   0.252764   0.012363
    9  N  1  Z   -0.000454   0.005307   0.018905   0.008238   0.384864
   10  N  1 XX    0.000358   0.002481   0.005904   0.002471  -0.011740
   11  N  1 YY   -0.000162  -0.003447  -0.005045  -0.002391  -0.012787
   12  N  1 ZZ   -0.000195   0.000966  -0.000859  -0.000081   0.024527
   13  N  1 XY   -0.000085  -0.000722  -0.002940  -0.015800  -0.000321
   14  N  1 XZ   -0.000075  -0.002424   0.029060   0.000464  -0.000876
   15  N  1 YZ   -0.000042  -0.000275  -0.000294   0.027666  -0.000721
   16  H  2  S   -0.001933   0.212965  -0.247923   0.354319   0.124584
   17  H  2  S    0.000428   0.005237  -0.029398   0.070949   0.027631
   18  H  2  X   -0.000630   0.026158  -0.000983   0.030367   0.011664
   19  H  2  Y    0.000728  -0.027974   0.029083  -0.013000  -0.016230
   20  H  2  Z    0.000455  -0.009048   0.010257  -0.015483   0.019403
   21  H  3  S   -0.001960   0.216792  -0.232215  -0.365564   0.125325
   22  H  3  S    0.000369   0.006752  -0.030292  -0.074063   0.026086
   23  H  3  X   -0.000583   0.024259   0.005775  -0.027932   0.011227
   24  H  3  Y   -0.000742   0.029401  -0.027051  -0.014965   0.018211
   25  H  3  Z    0.000474  -0.011458   0.010867   0.018333   0.018838
   26  H  4  S   -0.002117   0.211044   0.443104  -0.004960   0.121981
   27  H  4  S    0.000598   0.003166   0.056319   0.002779   0.025681
   28  H  4  X    0.001097  -0.040827  -0.041054   0.003463  -0.017692
   29  H  4  Y   -0.000060   0.002435   0.004017   0.020678   0.001128
   30  H  4  Z    0.000414  -0.005436  -0.015197  -0.000039   0.019544

                      6          7          8          9         10
                    0.0000     0.0000     0.0000     0.1497     0.1974
                     A          A          A          A          A   
    1  N  1  S    0.256064   0.046791   0.005572  -0.151615  -0.007990
    2  N  1  S    0.835336   0.122770   0.017877  -0.234055  -0.018621
    3  N  1  S    0.167119  -0.055691  -0.016671   1.515853  -0.002735
    4  N  1  X   -0.059316   0.987300   0.002486   0.021605   0.106473
    5  N  1  Y   -0.019620  -0.032350   0.902999   0.011857  -0.020363
    6  N  1  Z    0.696097  -0.023332  -0.024510  -0.222356  -0.027351
    7  N  1  X   -0.035646   0.099137  -0.003981  -0.116527  -0.732011
    8  N  1  Y   -0.014220  -0.008116   0.030231  -0.035766   0.037942
    9  N  1  Z   -0.085847  -0.009261   0.003290   0.514043   0.077409
   10  N  1 XX   -0.024759   0.015321  -0.009115   0.070096  -0.063599
   11  N  1 YY    0.031179  -0.020521   0.008144  -0.023744   0.052296
   12  N  1 ZZ   -0.006420   0.005200   0.000972  -0.046352   0.011304
   13  N  1 XY    0.008253   0.010916   0.026676  -0.014348   0.011202
   14  N  1 XZ    0.025277  -0.049601   0.002146  -0.034545  -0.109808
   15  N  1 YZ    0.008598   0.004982  -0.026616  -0.012643   0.002057
   16  H  2  S   -0.486927   0.331460  -0.591299   0.278679   0.209468
   17  H  2  S   -0.055964   0.066677  -0.129631  -0.885249  -0.828658
   18  H  2  X   -0.037939  -0.000263  -0.042692  -0.092994  -0.014640
   19  H  2  Y    0.058216  -0.036653   0.028577   0.044156   0.044727
   20  H  2  Z   -0.013768   0.010486   0.009637   0.034857   0.064219
   21  H  3  S   -0.492526   0.312622   0.608374   0.217200   0.264877
   22  H  3  S   -0.055992   0.060922   0.134176  -0.779286  -0.978189
   23  H  3  X   -0.034714  -0.010242   0.039573  -0.090979  -0.008603
   24  H  3  Y   -0.061369   0.035682   0.030269  -0.048355  -0.047301
   25  H  3  Z   -0.011554   0.004795  -0.012125   0.045712   0.057481
   26  H  4  S   -0.506299  -0.704653  -0.008400   0.316737  -0.532266
   27  H  4  S   -0.051913  -0.128245  -0.001553  -0.863414   1.877713
   28  H  4  X    0.070070   0.065595  -0.001999   0.111469  -0.099851
   29  H  4  Y   -0.003684  -0.004172  -0.013465  -0.006403   0.010881
   30  H  4  Z   -0.009271  -0.008101   0.004148  -0.003693  -0.078966

                     11         12         13         14         15
                    0.2078     0.5448     0.5654     0.6305     0.8116
                     A          A          A          A          A   
    1  N  1  S    0.012085  -0.046235   0.011368  -0.076774  -0.265019
    2  N  1  S    0.022932  -0.023827  -0.046084  -0.280901  -0.600685
    3  N  1  S   -0.087326   0.508726  -0.368023  -0.109920   1.138859
    4  N  1  X    0.022371  -0.300468   0.224506  -0.309882   0.080033
    5  N  1  Y   -0.018281  -0.428963  -0.451430   0.011808  -0.016627
    6  N  1  Z    0.018791  -0.381027   0.313603   0.481185   0.195639
    7  N  1  X   -0.072723   0.974556  -0.845411   1.524400  -0.439153
    8  N  1  Y    0.480613   1.091947   1.344188  -0.025721   0.089524
    9  N  1  Z   -0.052048   0.562530  -0.522086  -0.876999   0.004573
   10  N  1 XX    0.001929  -0.027732   0.047716   0.032662  -0.089092
   11  N  1 YY   -0.001083   0.006646  -0.023366   0.012573   0.143842
   12  N  1 ZZ   -0.000846   0.021085  -0.024350  -0.045235  -0.054750
   13  N  1 XY   -0.096057  -0.010899   0.008980  -0.009650  -0.029954
   14  N  1 XZ   -0.005529   0.021971  -0.012807  -0.041633   0.095849
   15  N  1 YZ    0.078458   0.025409   0.015409  -0.004448  -0.026967
   16  H  2  S    0.542887  -0.318652  -0.303074   0.700276  -0.072232
   17  H  2  S   -1.789284  -0.421680  -0.855830   0.216973  -0.322882
   18  H  2  X   -0.050219   0.028940  -0.164646   0.062142   0.117328
   19  H  2  Y    0.053113   0.073576   0.005949  -0.076217   0.454938
   20  H  2  Z    0.039015   0.076955   0.029751   0.010006  -0.165314
   21  H  3  S   -0.539152   0.190769   0.428586   0.677887  -0.024422
   22  H  3  S    1.809090   0.823735   0.523864   0.250621  -0.237525
   23  H  3  X    0.055260   0.134009  -0.032155   0.030327   0.219423
   24  H  3  Y    0.058540   0.026856   0.083733   0.079733  -0.429973
   25  H  3  Z   -0.041044  -0.045455  -0.081335  -0.003963  -0.085100
   26  H  4  S    0.001508  -0.582242   0.579737  -0.191283   0.030980
   27  H  4  S    0.059223  -0.556840   0.387343  -0.740091  -0.087189
   28  H  4  X   -0.016637   0.085924  -0.065665   0.172009  -0.065820
   29  H  4  Y   -0.047214   0.022894   0.091262  -0.026439  -0.076300
   30  H  4  Z   -0.009541   0.069958  -0.046206  -0.091777   0.248346

                     16         17         18         19         20
                    0.9653     1.0145     1.3355     1.4367     1.5160
                     A          A          A          A          A   
    1  N  1  S   -0.508256  -0.087299  -0.029870  -0.346950  -0.505327
    2  N  1  S   -1.078008  -0.184126  -0.061800  -0.723120  -1.034217
    3  N  1  S    2.170173   0.454919   0.108488   1.284374   2.031016
    4  N  1  X    0.055661   0.000833  -0.097169  -0.055995   0.054941
    5  N  1  Y    0.015384   0.072449   0.124098  -0.005278  -0.033075
    6  N  1  Z    0.156550   0.030090  -0.006407  -0.025346  -0.017130
    7  N  1  X   -0.234507  -0.011363   0.488150   0.867010  -0.711617
    8  N  1  Y   -0.076657  -0.426301  -0.358278   0.079223  -0.126001
    9  N  1  Z   -0.074690   0.132651   0.020471   0.480162   0.898524
   10  N  1 XX   -0.071250   0.010024   0.035971   0.088553   0.111662
   11  N  1 YY   -0.152929   0.024415  -0.023171   0.098618   0.078277
   12  N  1 ZZ    0.224179  -0.034439  -0.012800  -0.187171  -0.189939
   13  N  1 XY   -0.003574   0.185948   0.033653  -0.007566  -0.001398
   14  N  1 XZ    0.011423   0.022933   0.000546  -0.031412   0.039591
   15  N  1 YZ    0.011842   0.265990  -0.028222  -0.010413   0.045565
   16  H  2  S   -0.367840   0.042625   0.281027  -0.156306  -0.718783
   17  H  2  S   -0.281259   0.058777   0.082609  -0.008787  -0.175432
   18  H  2  X   -0.021502   0.208619  -0.603774  -0.296750   0.049442
   19  H  2  Y   -0.137613   0.055449  -0.160680  -0.200380   0.003614
   20  H  2  Z    0.352412   0.328249  -0.304069  -0.384435  -0.225684
   21  H  3  S   -0.400989  -0.186105  -0.073218  -0.122786  -0.752498
   22  H  3  S   -0.296264  -0.178501   0.002035  -0.010588  -0.291839
   23  H  3  X   -0.011904  -0.273815   0.331069  -0.525073   0.137671
   24  H  3  Y    0.158908  -0.122715  -0.064393   0.161121  -0.074816
   25  H  3  Z    0.343425  -0.424861   0.050696  -0.477530   0.104210
   26  H  4  S   -0.233701  -0.080960  -0.262752  -0.714173  -0.285187
   27  H  4  S   -0.295925  -0.070982  -0.126509  -0.321725  -0.034051
   28  H  4  X   -0.024398   0.082880  -0.079786  -0.225281   0.204576
   29  H  4  Y    0.002303   0.486630   0.664229  -0.314386   0.127333
   30  H  4  Z    0.283756   0.020082   0.202232   0.219924  -0.839158

                     21         22         23         24         25
                    1.6176     1.8626     1.8840     2.0576     2.1678
                     A          A          A          A          A   
    1  N  1  S   -0.052082  -0.033445  -0.030013   0.069471   0.092087
    2  N  1  S   -0.107890  -0.077281  -0.045717   0.270032   0.203444
    3  N  1  S    0.167989   0.159854   0.196738   1.854711  -0.060148
    4  N  1  X    0.054332   0.527449  -0.367614  -0.037897  -0.172592
    5  N  1  Y    0.243527   0.156320   0.313014  -0.038268  -0.010727
    6  N  1  Z   -0.015102  -0.051606   0.029082   0.365030   0.057005
    7  N  1  X   -0.243487   0.048948  -0.041069   0.080292  -0.036860
    8  N  1  Y    0.615486  -0.190518  -0.163537   0.105931   0.044171
    9  N  1  Z    0.064871   0.033458   0.102326   0.773010  -0.319501
   10  N  1 XX    0.014170  -0.160091   0.126145  -0.261203  -0.153612
   11  N  1 YY    0.051047   0.295071  -0.185319  -0.029595   0.898346
   12  N  1 ZZ   -0.065217  -0.134981   0.059174   0.290798  -0.744734
   13  N  1 XY    0.036439   0.127737   0.208652   0.055843   0.094268
   14  N  1 XZ    0.005743  -0.139772   0.089403   0.046048   0.378969
   15  N  1 YZ   -0.235223  -0.035532  -0.106068   0.126717   0.151051
   16  H  2  S   -0.175863  -0.008482   0.017418  -0.502460   0.013167
   17  H  2  S   -0.331197  -0.030217  -0.431611  -0.305416  -0.092574
   18  H  2  X   -0.378021   0.103879  -0.268372  -0.793811  -0.279755
   19  H  2  Y   -0.216313   0.183216   0.927316   0.317332  -0.158296
   20  H  2  Z    0.617248  -0.240119   0.175085  -0.014004   0.451223
   21  H  3  S   -0.049079  -0.137808  -0.095968  -0.474117   0.039582
   22  H  3  S    0.282938   0.348927   0.179096  -0.217282  -0.081320
   23  H  3  X    0.513395   0.226234  -0.081415  -0.567712  -0.171406
   24  H  3  Y   -0.154418   0.769196   0.509930  -0.448667   0.153846
   25  H  3  Z   -0.563870  -0.171868   0.032171   0.119794   0.597575
   26  H  4  S    0.077780   0.007132  -0.073323  -0.525928   0.097729
   27  H  4  S    0.011541  -0.366466   0.175890  -0.372438   0.106866
   28  H  4  X    0.057701   0.667231  -0.377984   0.871232  -0.150456
   29  H  4  Y   -0.378821   0.031202  -0.024922  -0.228710  -0.044248
   30  H  4  Z   -0.135311   0.325918  -0.282708  -0.149933   0.054638

                     26         27         28         29
                    2.3233     2.5804     2.7634     2.9210
                     A          A          A          A   
    1  N  1  S    0.029525  -0.021740  -0.064182  -0.026980
    2  N  1  S    0.033501   0.096549  -0.146624  -0.084676
    3  N  1  S   -0.482255   2.007363  -0.268530  -0.366809
    4  N  1  X    0.049813  -0.103089  -0.607005  -0.254170
    5  N  1  Y    0.036990  -0.102009   0.226286  -0.505395
    6  N  1  Z   -0.061942   0.310211  -0.053432  -0.044383
    7  N  1  X   -0.010252  -0.580978  -1.332408  -0.442594
    8  N  1  Y    0.510727  -0.227499   0.463253  -0.846595
    9  N  1  Z   -0.205607   0.425271   0.045197   0.016520
   10  N  1 XX    0.266982   0.906920  -0.772059  -0.543860
   11  N  1 YY   -0.244080  -0.170579   0.568672   0.303723
   12  N  1 ZZ   -0.022902  -0.736341   0.203387   0.240137
   13  N  1 XY    0.651909   0.047634  -0.371669   1.205015
   14  N  1 XZ   -0.092482  -0.741754  -1.045740  -0.320881
   15  N  1 YZ    0.827812  -0.245350   0.401077  -0.757786
   16  H  2  S    0.014465  -0.745526  -0.946386   0.892857
   17  H  2  S   -0.074395  -0.175554  -0.376357   0.319807
   18  H  2  X   -0.123138  -0.069324  -0.514736   0.537003
   19  H  2  Y   -0.082333   0.482802   0.440515  -0.542024
   20  H  2  Z   -0.258411   0.353249   0.212629  -0.447316
   21  H  3  S    0.303758  -1.025291  -0.115385  -1.140668
   22  H  3  S    0.214394  -0.361170  -0.021483  -0.418292
   23  H  3  X    0.561616  -0.247786   0.054654  -0.606351
   24  H  3  Y   -0.040590  -0.622216  -0.040075  -0.651365
   25  H  3  Z    0.169223   0.468551  -0.069393   0.466000
   26  H  4  S    0.138466  -0.474590   1.371165   0.679022
   27  H  4  S    0.034580  -0.079914   0.510785   0.215961
   28  H  4  X   -0.134953   0.357509  -1.012959  -0.515727
   29  H  4  Y   -0.661208   0.027896   0.122905  -0.032271
   30  H  4  Z    0.120351   0.521366  -0.326416  -0.268842
 .....DONE WITH MCSCF ITERATIONS.....
 CPU     0: STEP CPU TIME=     8.38 TOTAL CPU TIME=          9.5 (      0.2 MIN)
 TOTAL WALL CLOCK TIME=          9.5 SECONDS, CPU UTILIZATION IS    99.89%

     ----------------------------------------------------------------
     PROPERTY VALUES FOR THE MCSCF SELF-CONSISTENT FIELD WAVEFUNCTION
     ----------------------------------------------------------------

          -----------------
          ENERGY COMPONENTS
          -----------------

         WAVEFUNCTION NORMALIZATION =       1.0000000000

                ONE ELECTRON ENERGY =     -94.7543408726
                TWO ELECTRON ENERGY =      27.3260030435
           NUCLEAR REPULSION ENERGY =      11.6725244767
                                      ------------------
                       TOTAL ENERGY =     -55.7558133524

 ELECTRON-ELECTRON POTENTIAL ENERGY =      27.3260030435
  NUCLEUS-ELECTRON POTENTIAL ENERGY =    -150.6534299704
   NUCLEUS-NUCLEUS POTENTIAL ENERGY =      11.6725244767
                                      ------------------
             TOTAL POTENTIAL ENERGY =    -111.6549024502
               TOTAL KINETIC ENERGY =      55.8990890978
                 VIRIAL RATIO (V/T) =       1.9974368859

          ---------------------------------------
          MULLIKEN AND LOWDIN POPULATION ANALYSES
          ---------------------------------------

     ATOMIC MULLIKEN POPULATION IN EACH MOLECULAR ORBITAL

                      1          2          3          4          5

                  2.000000   1.984076   1.656760   1.650957   1.646310

    1             2.000992   1.305288   1.535349   0.925956   1.059326
    2            -0.000303   0.224016   0.022057   0.199448   0.253478
    3            -0.000324   0.249754   0.024735   0.122243   0.324351
    4            -0.000364   0.205019   0.074620   0.403310   0.009154

                      6          7          8

                  0.024377   0.019120   0.018401

    1             0.012031   0.010348   0.009634
    2             0.006239   0.004161   0.000168
    3             0.005699   0.004648   0.000031
    4             0.000408  -0.000036   0.008567
 WARNING! MCSCF POPULATIONS SHOWN ABOVE ARE FOR THE NATURAL ORBITALS.
 IGNORE THE ABOVE DATA FOR MCSCF FUNCTIONS WHICH ARE NOT OF -FORS- TYPE.
 THE FOLLOWING POPULATIONS ARE CORRECT FOR ANY MCSCF WAVEFUNCTION.

               ----- POPULATIONS IN EACH AO -----
                             MULLIKEN      LOWDIN
              1  N  1  S      2.00271     1.89460
              2  N  1  S      0.82619     0.57610
              3  N  1  S      0.62741     0.39084
              4  N  1  X      0.67002     0.58757
              5  N  1  Y      0.71202     0.64675
              6  N  1  Z      0.88584     0.82778
              7  N  1  X      0.25120     0.37372
              8  N  1  Y      0.34733     0.41880
              9  N  1  Z      0.51752     0.55410
             10  N  1 XX      0.00055     0.17974
             11  N  1 YY      0.00158     0.15440
             12  N  1 ZZ      0.00369     0.14185
             13  N  1 XY      0.00692     0.01290
             14  N  1 XZ      0.00593     0.01391
             15  N  1 YZ      0.00000     0.00998
             16  H  2  S      0.61239     0.47351
             17  H  2  S      0.03913     0.14274
             18  H  2  X      0.02066     0.03717
             19  H  2  Y      0.02220     0.04089
             20  H  2  Z      0.01488     0.03741
             21  H  3  S      0.62943     0.48629
             22  H  3  S      0.04276     0.14187
             23  H  3  X      0.01884     0.03340
             24  H  3  Y      0.02352     0.04350
             25  H  3  Z      0.01658     0.04069
             26  H  4  S      0.61454     0.47907
             27  H  4  S      0.02802     0.14150
             28  H  4  X      0.03700     0.06201
             29  H  4  Y      0.00813     0.02070
             30  H  4  Z      0.01299     0.03623

          ----- MULLIKEN ATOMIC OVERLAP POPULATIONS -----
          (OFF-DIAGONAL ELEMENTS NEED TO BE MULTIPLIED BY 2)

             1           2           3           4

    1    5.9277391
    2    0.3037622   0.4184369
    3    0.3057614  -0.0072581   0.4377597
    4    0.3216609  -0.0056784  -0.0051259   0.3898199

          TOTAL MULLIKEN AND LOWDIN ATOMIC POPULATIONS
       ATOM         MULL.POP.    CHARGE          LOW.POP.     CHARGE
    1 N             6.858924    0.141076         6.783031    0.216969
    2 H             0.709263    0.290737         0.731722    0.268278
    3 H             0.731137    0.268863         0.745739    0.254261
    4 H             0.700677    0.299323         0.739508    0.260492

          MULLIKEN SPHERICAL HARMONIC POPULATIONS
       ATOM           S       P       D      F      G      H      I    TOTAL
    1 N             3.46    3.38    0.02   0.00   0.00   0.00   0.00    6.86
    2 H             0.65    0.06    0.00   0.00   0.00   0.00   0.00    0.71
    3 H             0.67    0.06    0.00   0.00   0.00   0.00   0.00    0.73
    4 H             0.64    0.06    0.00   0.00   0.00   0.00   0.00    0.70

          ---------------------
          ELECTROSTATIC MOMENTS
          ---------------------

 POINT   1           X           Y           Z (BOHR)    CHARGE
                -0.000002   -0.000001   -0.177185        1.00 (A.U.)
         DX          DY          DZ         /D/  (DEBYE)
    -0.318633   -0.102236    2.152580    2.178435
 ...... END OF PROPERTY EVALUATION ......
 CPU     0: STEP CPU TIME=     0.01 TOTAL CPU TIME=          9.5 (      0.2 MIN)
 TOTAL WALL CLOCK TIME=          9.5 SECONDS, CPU UTILIZATION IS   100.00%

     -------------------------------------------------
     GMC-PT/GMC-QDPT or general MCSCF input parameters
     -------------------------------------------------
 # of frozen core orbs. =         0 ->         0
 # of doubly occ. orbs. =         1
 # of active      orbs. =         7
 # of virtual     orbs. =        21
 # of active electrons  =         7
 # of states in CI      =         3
 Highest state in CI    =         3
 kstate =  1 1 1
 avecoe =  0.333 0.333 0.333
 State symmetry           = A           
 Assigned symmetry number = 1

 <<<Act. MO sym.: 1111111

 <<<Division of 1-ext.:  0
 <<<Division of 2-ext.:  0

     ------------------------
     Orbital canonicalization
     ------------------------

 MOs are canonicalized for core, virtual, and invariant-active orbital spaces.
 This is a part of the GMC-QDPT calculation.
 SCHWARZ INEQUALITY OVERHEAD:       465 INTEGRALS, T=        0.00
 DIRECT TRANSFORMATION SKIPS AO INTEGRAL STORAGE ON DISK.

 Averaged energy =     -55.755813352

 State #    1  Energy =     -55.897122569  S =  0.500
 State #    2  Energy =     -55.736368321  S =  0.500
 State #    3  Energy =     -55.633949167  S =  0.500

 Orbital energies for filled orbital space
  -15.987113
 Orbital energies for active orbital space
   -1.531708  -0.988824  -0.879949  -0.757563   0.397584
    0.417726   0.295888
 Orbital energies for external orbital space
    0.149717   0.197406   0.207779   0.544795   0.565390
    0.630483   0.811583   0.965274   1.014526   1.335533
    1.436681   1.515964   1.617611   1.862554   1.883978
    2.057607   2.167762   2.323271   2.580390   2.763449
    2.921012

 Zero values mean non-canonical orbitals.
 ... done with orbital canonicalization ...
 CPU     0: STEP CPU TIME=     0.61 TOTAL CPU TIME=         10.1 (      0.2 MIN)
 TOTAL WALL CLOCK TIME=         10.1 SECONDS, CPU UTILIZATION IS    99.90%

     --------------------------------------------
     PARTIAL TWO ELECTRON INTEGRAL TRANSFORMATION
     --------------------------------------------

 NUMBER OF CORE MOLECULAR ORBITALS     =    0
 NUMBER OF OCCUPIED MOLECULAR ORBITALS =    8
 TOTAL NUMBER OF MOLECULAR ORBITALS    =   29
 TOTAL NUMBER OF ATOMIC ORBITALS       =   30
 THRESHOLD FOR KEEPING TRANSFORMED 2E- INTEGRALS = 1.000E-09
 AO INTEGRALS WILL BE CALCULATED IN DIRECT MODE...
 DIRECT TRANSFORMATION SKIPS AO INTEGRAL STORAGE ON DISK.
 SCHWARZ INEQUALITY OVERHEAD:       465 INTEGRALS, T=        0.00

 PLAN A: REQUIREMENTS FOR FULLY IN-MEMORY TRANSFORMATION:
 # OF WORDS AVAILABLE =            100000000
 # OF WORDS NEEDED    =               221798

 PARALLEL ONLY WORKS WITH THE SEGMENTED ALGORITHM.
 ADJUSTING MEMORY TO USE SEGMENTED ALGORITHM.


 PLAN B: REQUIREMENTS FOR THE SEGMENTED TRANSFORMATION:
       MINIMUM=         124148 WORDS FOR 1 MOLECULAR ORBITAL PER PASS
       MAXIMUM=         221798 WORDS FOR ALL MOLECULAR ORBITALS IN 1 PASS
              (          13950 EXTRA WORDS INCLUDES 1 EXTRA ORBITAL/PASS)
 THIS RUN USES=         221798 WORDS,
 DISTRIBUTING   1 PASSES EACH CONTAINING     8 ORBITALS OVER   1 PROCESSORS.

 CHOOSING SEGMENTED PARTIAL TRANSFORMATION...
 DIRECT TRANSFORMATION SKIPS AO INTEGRAL STORAGE ON DISK.
 PASS #   1 TOOK        0.04 SECONDS.
 TOTAL NUMBER OF TRANSFORMED 2E- INTEGRALS KEPT =        29226
 ... END OF INTEGRAL TRANSFORMATION ...
 CPU     0: STEP CPU TIME=     0.04 TOTAL CPU TIME=         10.1 (      0.2 MIN)
 TOTAL WALL CLOCK TIME=         10.1 SECONDS, CPU UTILIZATION IS    99.90%

     --------     ------------------------------------------
     GMC-QDPT     Program written by H.Nakano (Kyushu Univ.)
     --------     ------------------------------------------

 *** Reference space

 Reference type: ORMAS (= Occupation restricted multiple active space)
 # of orbitals          =  7
 # of minimum electrons =  7
 # of maximum electrons =  7
 State symmetry    =    1 (input)
 2*Sz              =    1 (input)
 Spin multiplicity =    2 (input)
 Dimension of reference space =      1225  (from      3432 walks)

 Dimension of reference space =      1225  (from      1225 walks)

 <<<Ionized spaces for Ref-CI:
      0:         1225 /   -1-0:         1960 /  0-1-0:         2891

 ***                    ***
 *** Reference space CI ***
 ***                    ***

 Converged after   34 iterations

 Reference wavefunctions:

 State #    1  Energy =     -55.897122569  S =  0.500

      Det      Coef    Occupancy (Ignoring core)
      ---      ----    --------- --------- -----
        1   -0.979351  11110001110000
      393   -0.064884  10110101010010
      717   -0.077998  11010011100001

 State #    2  Energy =     -55.736368321  S =  0.500

      Det      Coef    Occupancy (Ignoring core)
      ---      ----    --------- --------- -----
       36   -0.984325  11110001101000
      463   -0.064345  10110101001010

 State #    3  Energy =     -55.633949167  S =  0.500

      Det      Coef    Occupancy (Ignoring core)
      ---      ----    --------- --------- -----
       71    0.981583  11110001011000
      822   -0.077990  11010011001001

 Davidson method: CPU/Wall time =           0.45 /           0.45 sec.

 Oscillator strength (invalid if E(1)/=E(GS)):
 -----------------------------------------
   State                        f
 -----------------------------------------
     2     F(REF-CI)=        0.0002543057
     3     F(REF-CI)=        0.0011010122
 -----------------------------------------

 Dipole moment matrix elements, x, y, z, in A.U.

 Dimension of ionized spaces for PT:
 (N-2) space:         1715 /  (N-1) space:         2842 /  N space:         2891
 (N+1) space:         2842 /  (N+2) space:         1715

 <<<Ionized spaces for internal:
         0:         1225 /      -1-0:         1960 /     0-1-0:         2891
  -1-0-1-0:         2842 / 0-1-0-1-0:         3381

 Diagonal elements of averaged one-particle density matrix:
       2       3       4       5       6       7       8
  0.9941  0.9893  0.9876  0.9931  0.0104  0.0110  0.0144
  0.9899  0.6615  0.6585  0.6636  0.0087  0.0077  0.0101

 Orbital energies:
 -------- Doubly-occupied orbitals (highest several orbs.) -------
             1
 -1.598711D+01
 -------- Active orbitals ----------------------------------------
             2            3            4            5            6
 -1.531708D+00-9.888238D-01-8.799491D-01-7.575632D-01 3.975841D-01
             7            8
  4.177263D-01 2.958884D-01
 -------- External orbitals (lowest several orbs.) ---------------
             9           10           11           12           13
  1.497174D-01 1.974063D-01 2.077792D-01 5.447951D-01 5.653896D-01
            14           15           16           17           18
  6.304835D-01 8.115826D-01 9.652735D-01 1.014526D+00 1.335533D+00

 *** Quasi-degeneracy checking

 === Det (|Ci| > 1.0D-01 and dE < 5.0D-03)

 # of small denominators (single excitations)
 State       dEmin  dE < 5.0D-03  dE < 5.0D-04  dE < 5.0D-05  dE < 5.0D-06
 ----- ----------- ------------- ------------- ------------- -------------
     1    5.00D-03             0             0             0             0
     2    5.00D-03             0             0             0             0
     3    5.00D-03             0             0             0             0

 # of small denominators (double excitations)
 State       dEmin  dE < 5.0D-03  dE < 5.0D-04  dE < 5.0D-05  dE < 5.0D-06
 ----- ----------- ------------- ------------- ------------- -------------
     1    5.00D-03             0             0             0             0
     2    5.00D-03             0             0             0             0
     3    5.00D-03             0             0             0             0

 *** Zeroth-Order Setup (Granovsky's zeroth-order vectors)
 Zeroth-order effective Hamiltonian
  (= Sum_i e(i)*<I|a+(i)a(i)|J> ):
                   1            2            3
     1 -7.457891D+00
     2  3.469074D-03-7.357468D+00
     3  2.250559D-03 8.973855D-04-7.241088D+00

 Zeroth-order vectors:
 State #    1
       MC st            1           2           3
       Coeff   -9.994D-01   3.438D-02   1.022D-02
 State #    2
       MC st            2           1           3
       Coeff   -9.994D-01  -3.430D-02   8.377D-03
 State #    3
       MC st            3           1           2
       Coeff    9.999D-01   1.051D-02   8.021D-03

 *** GMC-QDPT computation

 (Integral reading:  CPU/Wall time =           0.00 /           0.00 sec.)

 One-external:
   0 -ionized terms: CPU/Wall time =           0.03 /           0.03 sec.
 (-1)-ionized terms: CPU/Wall time =           0.09 /           0.09 sec.
 (+1)-ionized terms: CPU/Wall time =           0.02 /           0.02 sec.
 (+1)-ionized terms: CPU/Wall time =           0.01 /           0.01 sec.
 (+2)-ionized terms: CPU/Wall time =           0.00 /           0.00 sec.

 Internal:
 # of macro loops for internal contribution =         1 (input)
 Loop:    1
 Dimension of internal CISD space     =         0  (after screening)
 Space construction: CPU/Wall time =           0.01 /           0.02 sec.
 Internal terms:     CPU/Wall time =           0.00 /           0.00 sec.

 Two-external:
   0 -ionized terms: CPU/Wall time =           0.07 /           0.06 sec.
 (-1)-ionized terms: CPU/Wall time =           0.98 /           0.98 sec.
 (-2)-ionized terms: CPU/Wall time =           0.17 /           0.17 sec.

 Total time:         CPU/Wall time =           1.38 /           1.38 sec.

 ***                  ***
 *** GMC-QDPT Results ***
 ***                  ***

 Diagonal elements of effective Hamiltonian:
 Heff(  1) =   -55.99466237
 Heff(  2) =   -55.84551130
 Heff(  3) =   -55.74495856

 Off-diagonal elements of effective Hamiltonian:
                   1            2
     2 -4.897077D-03
     3  2.394315D-03 8.380092D-04

 ******** GMC-QDPT energies ********
 ----------------------------------------------------------------------------
   State                        1st order                           2nd order
 ----------------------------------------------------------------------------
     1     E(REF-CI)=      -55.8971225691   E(GMC-QDPT2)=      -55.9948464259
     2     E(REF-CI)=      -55.7363683209   E(GMC-QDPT2)=      -55.8453564244
     3     E(REF-CI)=      -55.6339491672   E(GMC-QDPT2)=      -55.7449293741
 ----------------------------------------------------------------------------

 Excitation energies (invalid if E(1)/=E(GS)):
 ----------------------------------------------------------------------------
   State                        1st order                           2nd order
 ----------------------------------------------------------------------------

     TZ Sorted GMC-PT ENERGIES:
         1      -55.9948464259
         2      -55.8453564244
         3      -55.7449293741
     2     E(REF-CI)=        4.3743481 eV   E(GMC-QDPT2)=        4.0678322 eV
     3     E(REF-CI)=        7.1613167 eV   E(GMC-QDPT2)=        6.8005929 eV
 ----------------------------------------------------------------------------

 Main characters of perturbed GMC-QDPT states:

 State #    1  Energy =     -55.994846426  S =  0.500

      Det      Coef    Occupancy (Ignoring core)
      ---      ----    --------- --------- -----
        1   -0.979377  11110001110000
      393   -0.064874  10110101010010
      717   -0.077992  11010011100001

 State #    2  Energy =     -55.845356424  S =  0.500

      Det      Coef    Occupancy (Ignoring core)
      ---      ----    --------- --------- -----
       36   -0.984349  11110001101000
      463   -0.064345  10110101001010

 State #    3  Energy =     -55.744929374  S =  0.500

      Det      Coef    Occupancy (Ignoring core)
      ---      ----    --------- --------- -----
       71    0.981588  11110001011000
      822   -0.077991  11010011001001

 <<<Max |V/de| = 2.200D-02  Thresh = 1.000D+00

 Oscillator strength (invalid if E(1)/=E(GS)):
 ----------------------------------------------------------------------------
   State                        1st order                           2nd order
 ----------------------------------------------------------------------------
     2     F(REF-CI)=        0.0002543057     F(GMC-PT2)=        0.0002434632
     3     F(REF-CI)=        0.0011010122     F(GMC-PT2)=        0.0010603665
 ----------------------------------------------------------------------------

 Dipole moment matrix elements, x, y, z, in A.U.
States    1    1       -0.1684457649       -0.0501883349        0.7633756873
States    1    2       -0.0087510022       -0.0296334846        0.0385773816
States    1    3        0.0630173882       -0.0113409361        0.0475867884
States    2    1       -0.0087510022       -0.0296334846        0.0385773816
States    2    2        0.0575899418       -0.0467802505        0.2576343312
States    2    3       -0.0705092086        0.1944670122       -0.0008874271
States    3    1        0.0630173882       -0.0113409361        0.0475867884
States    3    2       -0.0705092086        0.1944670122       -0.0008874271
States    3    3       -0.4554807876       -0.0964953861        0.2505120767

 Oscillator strength (valid only when positive): 
 ----------------------------------------------------------------------------
  States                        1st order                           2nd order
 ----------------------------------------------------------------------------
  1  1     F(REF-CI)=        0.0000000000     F(GMC-PT2)=        0.0000000000
  1  2     F(REF-CI)=       -0.0002543057     F(GMC-PT2)=       -0.0002434632
  1  3     F(REF-CI)=       -0.0011010122     F(GMC-PT2)=       -0.0010603665
  2  1     F(REF-CI)=        0.0002543057     F(GMC-PT2)=        0.0002434632
  2  2     F(REF-CI)=        0.0000000000     F(GMC-PT2)=        0.0000000000
  2  3     F(REF-CI)=       -0.0029253128     F(GMC-PT2)=       -0.0028648326
  3  1     F(REF-CI)=        0.0011010122     F(GMC-PT2)=        0.0010603665
  3  2     F(REF-CI)=        0.0029253128     F(GMC-PT2)=        0.0028648326
  3  3     F(REF-CI)=        0.0000000000     F(GMC-PT2)=        0.0000000000
 CPU     0: STEP CPU TIME=     1.90 TOTAL CPU TIME=         12.0 (      0.2 MIN)
 TOTAL WALL CLOCK TIME=         12.0 SECONDS, CPU UTILIZATION IS    99.92%

     !!! DIABATIZATION FOR REF CI STATES !!!

 *******************************************************
          $DMO GROUP FOUND IN THE INPUT.
        DIABATIZATION OF ADIABATIC STATES BEGINS.
     PROGRAMMED BY TAO ZENG (CARLETON UNIVERSITY).
               Email: toby.zeng@carleton.ca
     See T. Zeng, J. Chem. Phys. 2017, 146, 144103
 *******************************************************

 *************************************************************************
     STEP 1: TRANSFORMATION OF ADIABATIC STATES TO THE DMO REPRESENTATION
         See Atchity and Ruedenberg, J. Chem. Phys. 1999, 111, 2910
 *************************************************************************

Read in Diabatic Molecualr Orbitals:

                      1          2          3          4          5

    1  N  1  S    0.008609   0.000000   0.000000  -0.013219   0.279491
    2  N  1  S    0.442914  -0.000000   0.000000  -0.184329   0.867803
    3  N  1  S    0.276913   0.000000  -0.000000  -0.288315   0.144236
    4  N  1  X   -0.000000   0.493155  -0.024636  -0.000000  -0.000000
    5  N  1  Y    0.000000   0.024636   0.493155  -0.000000   0.000000
    6  N  1  Z    0.090197   0.000000   0.000000   0.593421   0.705309
    7  N  1  X   -0.000000   0.210628  -0.010522   0.000000   0.000000
    8  N  1  Y    0.000000   0.010522   0.210628  -0.000000  -0.000000
    9  N  1  Z   -0.004381   0.000000   0.000000   0.381592  -0.106092
   10  N  1 XX   -0.000457   0.010719  -0.000535  -0.012387   0.006153
   11  N  1 YY   -0.000457  -0.010719   0.000535  -0.012387   0.006153
   12  N  1 ZZ    0.000914  -0.000000   0.000000   0.024773  -0.012306
   13  N  1 XY    0.000000  -0.000618  -0.012377  -0.000000   0.000000
   14  N  1 XZ   -0.000000   0.026529  -0.001325  -0.000000   0.000000
   15  N  1 YZ    0.000000   0.001325   0.026529  -0.000000   0.000000
   16  H  2  S    0.194462  -0.176074   0.343485   0.112865  -0.523343
   17  H  2  S    0.003574  -0.023812   0.046452   0.024014  -0.054445
   18  H  2  X    0.018760   0.009101   0.022834   0.009336  -0.039151
   19  H  2  Y   -0.032493   0.022287  -0.020044  -0.016171   0.067811
   20  H  2  Z   -0.009251   0.008464  -0.016511   0.018769  -0.010566
   21  H  3  S    0.194462  -0.209430  -0.324227   0.112865  -0.523343
   22  H  3  S    0.003574  -0.028322  -0.043847   0.024014  -0.054445
   23  H  3  X    0.018760   0.006781  -0.023627   0.009336  -0.039151
   24  H  3  Y    0.032493  -0.024174  -0.017723   0.016171  -0.067811
   25  H  3  Z   -0.009251   0.010067   0.015585   0.018769  -0.010566
   26  H  4  S    0.194462   0.385503  -0.019258   0.112865  -0.523343
   27  H  4  S    0.003574   0.052134  -0.002604   0.024014  -0.054445
   28  H  4  X   -0.037519  -0.032295   0.001613  -0.018672   0.078302
   29  H  4  Y    0.000000   0.001067   0.021353  -0.000000   0.000000
   30  H  4  Z   -0.009251  -0.018530   0.000926   0.018769  -0.010566

                      6          7

    1  N  1  S    0.000000  -0.000000
    2  N  1  S    0.000000  -0.000000
    3  N  1  S   -0.000000   0.000000
    4  N  1  X   -0.930415  -0.002083
    5  N  1  Y   -0.002083   0.930415
    6  N  1  Z   -0.000000   0.000000
    7  N  1  X   -0.046866  -0.000105
    8  N  1  Y   -0.000105   0.046866
    9  N  1  Z   -0.000000   0.000000
   10  N  1 XX    0.001538   0.000003
   11  N  1 YY   -0.001538  -0.000003
   12  N  1 ZZ   -0.000000   0.000000
   13  N  1 XY   -0.000004   0.001776
   14  N  1 XZ    0.039985   0.000090
   15  N  1 YZ    0.000090  -0.039985
   16  H  2  S   -0.362630  -0.631354
   17  H  2  S   -0.065964  -0.114846
   18  H  2  X    0.002763  -0.037520
   19  H  2  Y    0.037435   0.040736
   20  H  2  Z    0.001882   0.003276
   21  H  3  S   -0.365454   0.629724
   22  H  3  S   -0.066477   0.114549
   23  H  3  X    0.002595   0.037532
   24  H  3  Y   -0.037617   0.040567
   25  H  3  Z    0.001896  -0.003268
   26  H  4  S    0.728084   0.001630
   27  H  4  S    0.132441   0.000297
   28  H  4  X   -0.062317  -0.000140
   29  H  4  Y    0.000055  -0.024345
   30  H  4  Z   -0.003778  -0.000008

NUMBER OF SUB ACTIVE SPACES:   1
ROTATE ACTIVE MOS TO DMOS IN EACH SUB-SPACE

SPACE  1:

OVERLAP BETWEEN ORTHONORMAL AND PRE-ORTHONORMAL REF. DMOS

             1           2           3           4           5

    1    0.9951648  -0.0120514  -0.0056251  -0.0017266  -0.0002638
    2   -0.0120514   1.0278437  -0.0138138  -0.0195113   0.0412226
    3   -0.0056251  -0.0138138   0.9543877  -0.0064283   0.0097807
    4   -0.0017266  -0.0195113  -0.0064283   0.9986787  -0.0022752
    5   -0.0002638   0.0412226   0.0097807  -0.0022752   1.0331499
    6    0.0033766   0.0294585  -0.0105127  -0.0245790   0.0139993
    7   -0.0007224   0.0089676   0.0359059   0.0066967   0.0088824

             6           7

    1    0.0033766  -0.0007224
    2    0.0294585   0.0089676
    3   -0.0105127   0.0359059
    4   -0.0245790   0.0066967
    5    0.0139993   0.0088824
    6    0.9972914  -0.0059838
    7   -0.0059838   1.0259036
REFERENCE DMOS AFTER ORTHONORMALIZATION:

                      1          2          3          4          5

    1  N  1  S    0.008563  -0.010925  -0.002937  -0.012918   0.271031
    2  N  1  S    0.444599  -0.031569  -0.007677  -0.182937   0.841278
    3  N  1  S    0.277726  -0.007565  -0.001988  -0.288307   0.139489
    4  N  1  X    0.009162   0.506825  -0.028483  -0.013554  -0.007034
    5  N  1  Y    0.003626   0.023014   0.483803  -0.002236  -0.013259
    6  N  1  Z    0.091630  -0.015169  -0.002269   0.595804   0.684652
    7  N  1  X    0.002637   0.206724  -0.008437   0.002679  -0.007427
    8  N  1  Y    0.001420   0.012958   0.219527   0.001460  -0.002946
    9  N  1  Z   -0.003647   0.011090   0.003948   0.382372  -0.102454
   10  N  1 XX   -0.000364   0.009940  -0.000547  -0.012179   0.005526
   11  N  1 YY   -0.000604  -0.010883   0.000228  -0.012641   0.006381
   12  N  1 ZZ    0.000969   0.000943   0.000320   0.024820  -0.011907
   13  N  1 XY   -0.000082  -0.000802  -0.013067  -0.000117   0.000138
   14  N  1 XZ    0.000165   0.024762  -0.000575   0.001446  -0.001514
   15  N  1 YZ    0.000162   0.002042   0.029338   0.000500  -0.000015
   16  H  2  S    0.196842  -0.126426   0.384720   0.107802  -0.494726
   17  H  2  S    0.003845  -0.017104   0.052689   0.023117  -0.050610
   18  H  2  X    0.019106   0.011389   0.026100   0.010014  -0.038292
   19  H  2  Y   -0.032679   0.016746  -0.022827  -0.015308   0.064311
   20  H  2  Z   -0.009263   0.008579  -0.017112   0.018839  -0.010429
   21  H  3  S    0.192858  -0.180086  -0.363057   0.093461  -0.496311
   22  H  3  S    0.003328  -0.024886  -0.050602   0.020772  -0.051281
   23  H  3  X    0.018824   0.007769  -0.025464   0.009103  -0.038304
   24  H  3  Y    0.032457  -0.019870  -0.019835   0.014428  -0.064478
   25  H  3  Z   -0.009052   0.010675   0.016843   0.019156  -0.010772
   26  H  4  S    0.197645   0.380355   0.000655   0.137481  -0.531313
   27  H  4  S    0.003779   0.049752   0.000209   0.028160  -0.056429
   28  H  4  X   -0.037914  -0.033582  -0.000623  -0.020790   0.077940
   29  H  4  Y    0.000133   0.001573   0.023326   0.000348  -0.000073
   30  H  4  Z   -0.009463  -0.017324   0.000853   0.018358  -0.009471

                      6          7

    1  N  1  S   -0.003873  -0.002081
    2  N  1  S   -0.017004  -0.005331
    3  N  1  S   -0.009796   0.000948
    4  N  1  X   -0.948545  -0.010841
    5  N  1  Y    0.007789   0.889966
    6  N  1  Z    0.005130  -0.009511
    7  N  1  X   -0.053038  -0.001875
    8  N  1  Y    0.002126   0.037915
    9  N  1  Z    0.010578  -0.001785
   10  N  1 XX    0.000866  -0.000028
   11  N  1 YY   -0.001617   0.000101
   12  N  1 ZZ    0.000751  -0.000073
   13  N  1 XY   -0.000109   0.002194
   14  N  1 XZ    0.039414   0.000125
   15  N  1 YZ    0.000111  -0.040023
   16  H  2  S   -0.350647  -0.626100
   17  H  2  S   -0.064497  -0.113727
   18  H  2  X    0.003205  -0.037287
   19  H  2  Y    0.035872   0.040089
   20  H  2  Z    0.002117   0.003691
   21  H  3  S   -0.352557   0.629871
   22  H  3  S   -0.064554   0.113580
   23  H  3  X    0.003029   0.037710
   24  H  3  Y   -0.035946   0.040688
   25  H  3  Z    0.002394  -0.003892
   26  H  4  S    0.729049   0.006336
   27  H  4  S    0.132812   0.000929
   28  H  4  X   -0.062983  -0.000754
   29  H  4  Y    0.000116  -0.024561
   30  H  4  Z   -0.002650   0.000053

 -------------------------------------------
       MAXIMIZING MORMO OVERLAP TERM        
 -------------------------------------------
   SWEEP    VALUE       PROGRESS
     0     6.72015
     1     6.98861     0.26845854
     2     6.98934     0.00072794
     3     6.98934     0.00000000
     4     6.98934     0.00000000
 THE ROTATION IS DONE
ACTIVE ORBITALS AFTER MORMO:

                      1          2          3          4          5

    1  N  1  S    0.008124  -0.014301  -0.004509  -0.012732   0.257406
    2  N  1  S    0.439653  -0.029817  -0.011184  -0.184804   0.823667
    3  N  1  S    0.292621   0.013862   0.011848  -0.284889   0.159158
    4  N  1  X    0.005968   0.507202  -0.030372  -0.017815  -0.000241
    5  N  1  Y    0.000487   0.019877   0.469087  -0.006267  -0.009544
    6  N  1  Z    0.088824  -0.022679  -0.005129   0.596077   0.677705
    7  N  1  X    0.008272   0.183081  -0.000403   0.023869  -0.024312
    8  N  1  Y    0.006387   0.022273   0.252740   0.009599  -0.010569
    9  N  1  Z    0.004139   0.031668   0.011168   0.382190  -0.093523
   10  N  1 XX    0.001455   0.008758   0.001847  -0.012870  -0.023634
   11  N  1 YY   -0.002316  -0.009377  -0.001990  -0.011304   0.030435
   12  N  1 ZZ    0.000861   0.000619   0.000144   0.024174  -0.006801
   13  N  1 XY   -0.000365  -0.003300  -0.015376  -0.000587   0.008449
   14  N  1 XZ   -0.001255   0.021954  -0.000595   0.000814   0.024672
   15  N  1 YZ    0.000292   0.001699   0.026896  -0.000611   0.009099
   16  H  2  S    0.191896  -0.156481   0.356290   0.108534  -0.493124
   17  H  2  S    0.003230  -0.012827   0.069613   0.025414  -0.054750
   18  H  2  X    0.024584   0.003133   0.029942   0.010802  -0.039060
   19  H  2  Y   -0.025316   0.020608  -0.014143  -0.014161   0.059466
   20  H  2  Z   -0.009421   0.011585  -0.015716   0.018606  -0.013010
   21  H  3  S    0.192617  -0.196144  -0.339102   0.102203  -0.504722
   22  H  3  S    0.004127  -0.025335  -0.069783   0.022359  -0.056156
   23  H  3  X    0.022585   0.004352  -0.026868   0.010239  -0.036377
   24  H  3  Y    0.026536  -0.020681  -0.012670   0.015630  -0.062831
   25  H  3  Z   -0.011571   0.013688   0.017653   0.018242  -0.010452
   26  H  4  S    0.188791   0.386858  -0.012225   0.123402  -0.525266
   27  H  4  S    0.000740   0.044945   0.002625   0.027567  -0.055016
   28  H  4  X   -0.037701  -0.036713   0.003851  -0.017117   0.072927
   29  H  4  Y    0.002409   0.005070   0.020247   0.001057  -0.003529
   30  H  4  Z   -0.005974  -0.014977   0.001395   0.019841  -0.010437

                      6          7

    1  N  1  S   -0.037648   0.003457
    2  N  1  S   -0.083673   0.009622
    3  N  1  S    0.076059  -0.019684
    4  N  1  X   -0.936907  -0.011760
    5  N  1  Y    0.008426   0.894601
    6  N  1  Z    0.030290  -0.020595
    7  N  1  X   -0.081045  -0.003771
    8  N  1  Y    0.004608   0.025734
    9  N  1  Z   -0.004005   0.007948
   10  N  1 XX   -0.014853  -0.009419
   11  N  1 YY    0.021128   0.008270
   12  N  1 ZZ   -0.006275   0.001150
   13  N  1 XY   -0.011226   0.026694
   14  N  1 XZ    0.053394   0.003294
   15  N  1 YZ   -0.004428  -0.027277
   16  H  2  S   -0.369478  -0.603957
   17  H  2  S   -0.070538  -0.132026
   18  H  2  X   -0.000920  -0.043029
   19  H  2  Y    0.041704   0.029469
   20  H  2  Z   -0.010387   0.010117
   21  H  3  S   -0.365122   0.609616
   22  H  3  S   -0.068526   0.134539
   23  H  3  X    0.008878   0.040573
   24  H  3  Y   -0.041537   0.029961
   25  H  3  Z   -0.004527  -0.012186
   26  H  4  S    0.729369   0.012921
   27  H  4  S    0.131055   0.001922
   28  H  4  X   -0.066941  -0.004166
   29  H  4  Y    0.004485  -0.013713
   30  H  4  Z    0.005240   0.004388

Actually Used Diabatic Molecualr Orbitals:

                      1          2          3          4          5

    1  N  1  S    0.008124  -0.014301  -0.004509  -0.012732   0.257406
    2  N  1  S    0.439653  -0.029817  -0.011184  -0.184804   0.823667
    3  N  1  S    0.292621   0.013862   0.011848  -0.284889   0.159158
    4  N  1  X    0.005968   0.507202  -0.030372  -0.017815  -0.000241
    5  N  1  Y    0.000487   0.019877   0.469087  -0.006267  -0.009544
    6  N  1  Z    0.088824  -0.022679  -0.005129   0.596077   0.677705
    7  N  1  X    0.008272   0.183081  -0.000403   0.023869  -0.024312
    8  N  1  Y    0.006387   0.022273   0.252740   0.009599  -0.010569
    9  N  1  Z    0.004139   0.031668   0.011168   0.382190  -0.093523
   10  N  1 XX    0.001455   0.008758   0.001847  -0.012870  -0.023634
   11  N  1 YY   -0.002316  -0.009377  -0.001990  -0.011304   0.030435
   12  N  1 ZZ    0.000861   0.000619   0.000144   0.024174  -0.006801
   13  N  1 XY   -0.000365  -0.003300  -0.015376  -0.000587   0.008449
   14  N  1 XZ   -0.001255   0.021954  -0.000595   0.000814   0.024672
   15  N  1 YZ    0.000292   0.001699   0.026896  -0.000611   0.009099
   16  H  2  S    0.191896  -0.156481   0.356290   0.108534  -0.493124
   17  H  2  S    0.003230  -0.012827   0.069613   0.025414  -0.054750
   18  H  2  X    0.024584   0.003133   0.029942   0.010802  -0.039060
   19  H  2  Y   -0.025316   0.020608  -0.014143  -0.014161   0.059466
   20  H  2  Z   -0.009421   0.011585  -0.015716   0.018606  -0.013010
   21  H  3  S    0.192617  -0.196144  -0.339102   0.102203  -0.504722
   22  H  3  S    0.004127  -0.025335  -0.069783   0.022359  -0.056156
   23  H  3  X    0.022585   0.004352  -0.026868   0.010239  -0.036377
[...]
      317    0.024895   -0.024895  ++2-200
      421   -0.024006   -0.024006  +22+0-0
      807   -0.022979    0.022979  2++-+0-
       51    0.021815   -0.021815  22+-00+
       99   -0.021754    0.021754  20-20++
       74    0.021548   -0.021548  2022+00
      878    0.021203    0.021203  ++-2+0-
      183   -0.020871    0.020871  202+-+0
      264    0.020616   -0.020616  -++2-0+
        6    0.020580   -0.020580  22200+0
      751    0.020144   -0.020144  2+20002

 State #    3  Energy =     -55.844590560

      Det      Coef        Coefp    Occupancy (Ignoring core)
      ---      ----        ----    --------- --------- -----
       36   -0.975852   -0.975852  22+2000
       71    0.107335   -0.107335  2+22000
        1   -0.073441    0.073441  222+000
      463    0.063293   -0.063293  20+2020
      472   -0.038375   -0.038375  2+020-+
      285    0.033339   -0.033339  02+2200
      123    0.032124   -0.032124  +-2200+
      297    0.031948   -0.031948  +202-0+
      121   -0.031471    0.031471  +22-00+
      288   -0.028140   -0.028140  +-+2-+0
      460   -0.028105   -0.028105  -++2+-0
      142    0.027858    0.027858  22+0200
      157    0.027311   -0.027311  220+-0+
       16   -0.026722    0.026722  222000+
      145   -0.025981   -0.025981  -2++200
       39   -0.024628   -0.024628  2-+2+00
      282    0.024562    0.024562  +2+-200
      249    0.023896   -0.023896  20+2200
      262   -0.023301   -0.023301  2+02-0+
       64    0.023301   -0.023301  2-020++
      356    0.023084    0.023084  22+0020
       73    0.022230   -0.022230  2+-2+00
      823    0.021964   -0.021964  20+2002
      148   -0.021314   -0.021314  2-++-+0
      716    0.021097    0.021097  22+0002
       41   -0.021092    0.021092  22+-0+0
      457   -0.021072    0.021072  2++-+-0
      859    0.020691   -0.020691  02+2002

 ---------------------------------------
    -DIABATIC STATES IN PROTOTYPES-     
 ---------------------------------------

     STATE:    1
 Group Ref#    Coefficients
     1    1    0.989114
     2    2   -0.000078
     3    3   -0.000814

WEIGHT OF LISTED PROTOTYPES:   97.83%

     STATE:    2
 Group Ref#    Coefficients
     1    1   -0.000078
     2    2    0.987764
     3    3    0.000454

WEIGHT OF LISTED PROTOTYPES:   97.57%

     STATE:    3
 Group Ref#    Coefficients
     1    1   -0.000814
     2    2    0.000454
     3    3    0.989174

WEIGHT OF LISTED PROTOTYPES:   97.85%

 --------------------------------------------------
 IN DIRECT MAX. DIABATIZATION FOR GMC-QDPT

 DIRECT MAXIMIZATION (DM) WITHOUT TRUNCATING ADIABATS
 EXPANSIONS INTO THE REFERENCE CONFIGURATION SPACE
 --------------------------------------------------

 -------------------------------------------
 - DM DIABT PT HAMILTONIAN MATRIX ELEMENTS -
 -------------------------------------------
                                            
 --- DIABATIC ENERGIES (DIAGONAL ELEMENT) ---       HARTREE            EV
 STATE #  1'S GMC-PT-LEVEL DIABATIC ENERGY=     -55.992134134       0.000000000
 STATE #  2'S GMC-PT-LEVEL DIABATIC ENERGY=     -55.748407539       6.632138457
 STATE #  3'S GMC-PT-LEVEL DIABATIC ENERGY=     -55.844590552       4.014865366

 --- DIABATIC COUPLINGS (OFF DIAGONAL ELEMENTS)---  HATREE            EV
 STATE #  1 &  2'S GMC-PT-LEVEL COUPLING  =       0.023065194       0.627635896
 STATE #  1 &  3'S GMC-PT-LEVEL COUPLING  =       0.007957325       0.216529850
 STATE #  2 &  3'S GMC-PT-LEVEL COUPLING  =      -0.012223740      -0.332624895

 ---------------------------------------
     - ROTATION TO DIABATIC STATES -    
 ---------------------------------------
 ROWS=ADIABATIC, COLUMNS=DIABATIC STATES

             1           2           3

    1    0.9935468  -0.0959872  -0.0604256
    2    0.0707602   0.1081917   0.9916086
    3    0.0886442   0.9894852  -0.1142856

 ---------------------------------------
          - DIABATIC STATES -           
 ---------------------------------------

 State #    1  Energy =     -55.992134134

      Det      Coef        Coefp    Occupancy (Ignoring core)
      ---      ----        ----    --------- --------- -----
        1    0.971896   -0.971896  222+000
       17    0.090689    0.090689  22-+00+
      717   -0.076546   -0.076546  220+002
      393   -0.065557   -0.065557  202+020
      701   -0.060732   -0.060732  22++00-
        4    0.052309   -0.052309  2-2++00
      176   -0.051068    0.051068  2+2+-00
      402    0.039191   -0.039191  2+-+0-+
      708    0.037349   -0.037349  2-++0+-
      215   -0.034835   -0.034835  022+200
      227   -0.034059   -0.034059  +2-+-0+
      705   -0.033642   -0.033642  -2+++0-
        6   -0.032119    0.032119  22200+0
      218    0.032076   -0.032076  +-2+-+0
      390    0.032033   -0.032033  -+2++-0
       51   -0.029957    0.029957  22+-00+
      212    0.028235    0.028235  +220200
      122    0.027548    0.027548  +2-200+
        2    0.026380   -0.026380  2220+00
       76    0.025501    0.025501  2+2-0+0
      113   -0.023691    0.023691  +-220+0
      773    0.023556   -0.023556  +2-++0-
      159    0.022881   -0.022881  -2++-0+
      702    0.022756    0.022756  22+0+0-
      179   -0.022470   -0.022470  202+200
      143   -0.022248   -0.022248  220+200
      106   -0.021613   -0.021613  +222000
      387   -0.021455    0.021455  2+20+-0
      424   -0.021325   -0.021325  +-2++-0
      184   -0.020695   -0.020695  -+2+-+0
      368   -0.020316   -0.020316  2-++0-+

 State #    2  Energy =     -55.748407539

      Det      Coef        Coefp    Occupancy (Ignoring core)
      ---      ----        ----    --------- --------- -----
       71   -0.975125    0.975125  2+22000
      822    0.078062   -0.078062  2+02002
      806   -0.061263   -0.061263  2++200-
       87    0.049024   -0.049024  2+-200+
       36    0.046938    0.046938  22+2000
       78   -0.044756    0.044756  20220+0
      813    0.042616   -0.042616  20+20+-
      111    0.041841   -0.041841  +22-0+0
      122    0.036589    0.036589  +2-200+
      332   -0.035552    0.035552  ++-2-0+
      810   -0.035001   -0.035001  -++2+0-
      320    0.034943    0.034943  0+22200
      106   -0.031357   -0.031357  +222000
      323   -0.030340    0.030340  +022-+0
      317    0.028756   -0.028756  ++2-200
      180   -0.028731    0.028731  -+2+200
      386    0.026986   -0.026986  2+2+0-0
      177    0.026820   -0.026820  2+20200
        6    0.026492   -0.026492  22200+0
       38   -0.025905    0.025905  2202+00
       74   -0.025810    0.025810  2022+00
       99   -0.025785    0.025785  20-20++
      807   -0.025417    0.025417  2++-+0-
      192   -0.025279    0.025279  2+-+-0+
      248    0.025072   -0.025072  2+02200
      391    0.024210   -0.024210  2+20020
      878    0.023803    0.023803  ++-2+0-
      264    0.023713   -0.023713  -++2-0+
       51    0.023012   -0.023012  22+-00+
      183   -0.022706    0.022706  202+-+0
      421   -0.022318   -0.022318  +22+0-0
      113    0.020975   -0.020975  +-220+0
      841   -0.020773    0.020773  +2+200-
      751    0.020401   -0.020401  2+20002

 State #    3  Energy =     -55.844590552

      Det      Coef        Coefp    Occupancy (Ignoring core)
      ---      ----        ----    --------- --------- -----
       36   -0.974317   -0.974317  22+2000
       39   -0.081668   -0.081668  2-+2+00
      463    0.063641   -0.063641  20+2020
       41   -0.059591    0.059591  22+-0+0
      246    0.058389    0.058389  2++2-00
      351    0.050394    0.050394  22++0-0
       71   -0.046906    0.046906  2+22000
      472   -0.041540   -0.041540  2+020-+
      121   -0.035775    0.035775  +22-00+
      285    0.034238   -0.034238  02+2200
      297    0.033851   -0.033851  +202-0+
      460   -0.032255   -0.032255  -++2+-0
      288   -0.031700   -0.031700  +-+2-+0
       52   -0.030234    0.030234  220200+
      123    0.029176   -0.029176  +-2200+
      145   -0.028764   -0.028764  -2++200
      282    0.028448    0.028448  +2+-200
      157    0.027102   -0.027102  220+-0+
      142    0.026895    0.026895  22+0200
       64    0.025382   -0.025382  2-020++
      716    0.024503    0.024503  22+0002
       16   -0.024389    0.024389  222000+
       73    0.023279   -0.023279  2+-2+00
      249    0.022898   -0.022898  20+2200
      457   -0.022216    0.022216  2++-+-0
      148   -0.022078   -0.022078  2-++-+0
       86    0.021412    0.021412  2+2-00+
      494    0.021357   -0.021357  +-+2+-0
      843   -0.020648   -0.020648  +202+0-
      859    0.020443   -0.020443  02+2002
       55   -0.020222   -0.020222  220-+0+

 ---------------------------------------
      - DIABATIC STATES IN CMO -        
 ---------------------------------------

 State #    1  Energy =     -55.992134134

      Det      Coef        Coefp    Occupancy (Ignoring core)
      ---      ----        ----    --------- --------- -----
        1    0.971735   -0.971735  222+000
       71   -0.089956    0.089956  2+22000
       36   -0.082914   -0.082914  22+2000
      717   -0.077750   -0.077750  220+002
      393   -0.065503   -0.065503  202+020
        8   -0.043195    0.043195  2-2+0+0
       17    0.043192    0.043192  22-+00+
      708    0.036633   -0.036633  2-++0+-
      402    0.034586   -0.034586  2+-+0-+
      215   -0.033930   -0.033930  022+200
      705   -0.032756   -0.032756  -2+++0-
      227   -0.031525   -0.031525  +2-+-0+
       51   -0.028929    0.028929  22+-00+
      218    0.028896   -0.028896  +-2+-+0
      390    0.028828   -0.028828  -+2++-0
        2    0.027958   -0.027958  2220+00
      143   -0.026989   -0.026989  220+200
      106   -0.026905   -0.026905  +222000
      122    0.026621    0.026621  +2-200+
      212    0.025023    0.025023  +220200
       76    0.024856    0.024856  2+2-0+0
      113   -0.023907    0.023907  +-220+0
      702    0.022985    0.022985  22+0+0-
      159    0.021476   -0.021476  -2++-0+
      773    0.021440   -0.021440  +2-++0-
      179   -0.020870   -0.020870  202+200
      368   -0.020100   -0.020100  2-++0-+
      753   -0.020008   -0.020008  202+002

 State #    2  Energy =     -55.748407539

      Det      Coef        Coefp    Occupancy (Ignoring core)
      ---      ----        ----    --------- --------- -----
       71   -0.971563    0.971563  2+22000
       36   -0.100002   -0.100002  22+2000
        1   -0.098711    0.098711  222+000
      822    0.077310   -0.077310  2+02002
      111    0.042601   -0.042601  +22-0+0
      813    0.036686   -0.036686  20+20+-
      122    0.035770    0.035770  +2-200+
      320    0.033709    0.033709  0+22200
      810   -0.032376   -0.032376  -++2+0-
      332   -0.031353    0.031353  ++-2-0+
       38   -0.028488    0.028488  2202+00
      248    0.028136   -0.028136  2+02200
      323   -0.027867    0.027867  +022-+0
      177    0.026236   -0.026236  2+20200
       76    0.025947    0.025947  2+2-0+0
      180   -0.025842    0.025842  -+2+200
      391    0.025589   -0.025589  2+20020
      192   -0.025237    0.025237  2+-+-0+
      317    0.024895   -0.024895  ++2-200
      421   -0.024006   -0.024006  +22+0-0
      807   -0.022979    0.022979  2++-+0-
       51    0.021815   -0.021815  22+-00+
       99   -0.021754    0.021754  20-20++
       74    0.021548   -0.021548  2022+00
      878    0.021203    0.021203  ++-2+0-
      183   -0.020871    0.020871  202+-+0
      264    0.020616   -0.020616  -++2-0+
        6    0.020580   -0.020580  22200+0
      751    0.020144   -0.020144  2+20002

 State #    3  Energy =     -55.844590552

      Det      Coef        Coefp    Occupancy (Ignoring core)
      ---      ----        ----    --------- --------- -----
       36   -0.975852   -0.975852  22+2000
       71    0.107335   -0.107335  2+22000
        1   -0.073441    0.073441  222+000
      463    0.063293   -0.063293  20+2020
      472   -0.038375   -0.038375  2+020-+
      285    0.033339   -0.033339  02+2200
      123    0.032124   -0.032124  +-2200+
      297    0.031948   -0.031948  +202-0+
      121   -0.031471    0.031471  +22-00+
      288   -0.028140   -0.028140  +-+2-+0
      460   -0.028105   -0.028105  -++2+-0
      142    0.027858    0.027858  22+0200
      157    0.027311   -0.027311  220+-0+
       16   -0.026722    0.026722  222000+
      145   -0.025981   -0.025981  -2++200
       39   -0.024628   -0.024628  2-+2+00
      282    0.024562    0.024562  +2+-200
      249    0.023896   -0.023896  20+2200
      262   -0.023301   -0.023301  2+02-0+
       64    0.023301   -0.023301  2-020++
      356    0.023084    0.023084  22+0020
       73    0.022230   -0.022230  2+-2+00
      823    0.021964   -0.021964  20+2002
      148   -0.021314   -0.021314  2-++-+0
      716    0.021097    0.021097  22+0002
       41   -0.021092    0.021092  22+-0+0
      457   -0.021072    0.021072  2++-+-0
      859    0.020691   -0.020691  02+2002

 ---------------------------------------
    -DIABATIC STATES IN PROTOTYPES-     
 ---------------------------------------

     STATE:    1
 Group Ref#    Coefficients
     1    1    0.989114
     2    2   -0.000078
     3    3   -0.000814

WEIGHT OF LISTED PROTOTYPES:   97.83%

     STATE:    2
 Group Ref#    Coefficients
     1    1   -0.000078
     2    2    0.987764
     3    3    0.000454

WEIGHT OF LISTED PROTOTYPES:   97.57%

     STATE:    3
 Group Ref#    Coefficients
     1    1   -0.000814
     2    2    0.000454
     3    3    0.989174

WEIGHT OF LISTED PROTOTYPES:   97.85%

     DIRECT MAX. DIABATIZATION FINISHED    
 CPU     0: STEP CPU TIME=     0.24 TOTAL CPU TIME=         12.3 (      0.2 MIN)
 TOTAL WALL CLOCK TIME=         12.3 SECONDS, CPU UTILIZATION IS    99.92%

DIABATS FOR SPIN-ORBIT CALCULATION ARE READY

TRANSITION DIPOLES BETWEEN ADIABATS (in A.U.):

STATE PAIR      X         Y         Z
    1    1 -0.168446 -0.050188  0.763376
    2    1 -0.008751 -0.029633  0.038577
    2    2  0.057590 -0.046780  0.257634
    3    1  0.063017 -0.011341  0.047587
    3    2 -0.070509  0.194467 -0.000887
    3    3 -0.455481 -0.096495  0.250512


TRANSITION DIPOLES BETWEEN DIABATS (in A.U.):

STATE PAIR      X         Y         Z
    1    1 -0.160584 -0.054260  0.770609
    2    1  0.031476 -0.002592  0.001336
    2    2 -0.473716 -0.051080  0.245290
    3    1 -0.002937 -0.011491  0.001822
    3    2 -0.013788  0.197573 -0.003368
    3    3  0.067963 -0.088124  0.255623

TRANSITION DIPOLES BETWEEN DIRECT MAX. DIABATS (in A.U.):

STATE PAIR      X         Y         Z
    1    1 -0.160584 -0.054260  0.770609
    2    1  0.031476 -0.002592  0.001336
    2    2 -0.473716 -0.051080  0.245290
    3    1 -0.002937 -0.011491  0.001822
    3    2 -0.013788  0.197573 -0.003368
    3    3  0.067964 -0.088124  0.255623
 No $TRANST Group Found.
 Quit without doing spin-orbit coupling
 ..... DONE WITH MP2 ENERGY .....
 CPU     0: STEP CPU TIME=     0.01 TOTAL CPU TIME=         12.3 (      0.2 MIN)
 TOTAL WALL CLOCK TIME=         12.3 SECONDS, CPU UTILIZATION IS    99.92%
            100000000  WORDS OF DYNAMIC MEMORY USED
 EXECUTION OF GAMESS TERMINATED NORMALLY Wed Nov 16 19:14:45 2022
 DDI: 715512 bytes (0.7 MB / 0 MWords) used by master data server.

 ----------------------------------------
 CPU timing information for all processes
 ========================================
 0: 12.22 + 0.268 = 12.291
 ----------------------------------------
Note: The following floating-point exceptions are signalling: IEEE_DENORMAL
 ddikick.x: exited gracefully.
unset echo
----- accounting info -----
Files used on the master node io002 were:
-rw-r--r-- 1 bsonghao nooijen   20725 Nov 16 19:14 /scratch/bsonghao/nh3_diabatization_2d_at_mode_7_8_dist-0.1_-0.3.F05
-rw-r--r-- 1 bsonghao nooijen  363520 Nov 16 19:14 /scratch/bsonghao/nh3_diabatization_2d_at_mode_7_8_dist-0.1_-0.3.F09
-rw-r--r-- 1 bsonghao nooijen 1995920 Nov 16 19:14 /scratch/bsonghao/nh3_diabatization_2d_at_mode_7_8_dist-0.1_-0.3.F10
-rw-r--r-- 1 bsonghao nooijen  131264 Nov 16 19:14 /scratch/bsonghao/nh3_diabatization_2d_at_mode_7_8_dist-0.1_-0.3.F13
-rw-r--r-- 1 bsonghao nooijen  180312 Nov 16 19:14 /scratch/bsonghao/nh3_diabatization_2d_at_mode_7_8_dist-0.1_-0.3.F15
-rw-r--r-- 1 bsonghao nooijen       0 Nov 16 19:14 /scratch/bsonghao/nh3_diabatization_2d_at_mode_7_8_dist-0.1_-0.3.F16
-rw-r--r-- 1 bsonghao nooijen    9808 Nov 16 19:14 /scratch/bsonghao/nh3_diabatization_2d_at_mode_7_8_dist-0.1_-0.3.F70
-rw-r--r-- 1 bsonghao nooijen    9808 Nov 16 19:14 /scratch/bsonghao/nh3_diabatization_2d_at_mode_7_8_dist-0.1_-0.3.F71
-rw-r--r-- 1 bsonghao nooijen   19608 Nov 16 19:14 /scratch/bsonghao/nh3_diabatization_2d_at_mode_7_8_dist-0.1_-0.3.F72
-rw-r--r-- 1 bsonghao nooijen   19608 Nov 16 19:14 /scratch/bsonghao/nh3_diabatization_2d_at_mode_7_8_dist-0.1_-0.3.F73
-rw-r--r-- 1 bsonghao nooijen 1920824 Nov 16 19:14 /scratch/bsonghao/nh3_diabatization_2d_at_mode_7_8_dist-0.1_-0.3.F74
-rw-r--r-- 1 bsonghao nooijen       0 Nov 16 19:14 /scratch/bsonghao/nh3_diabatization_2d_at_mode_7_8_dist-0.1_-0.3.F75
-rw-r--r-- 1 bsonghao nooijen   58848 Nov 16 19:14 /scratch/bsonghao/nh3_diabatization_2d_at_mode_7_8_dist-0.1_-0.3.F76
-rw-r--r-- 1 bsonghao nooijen       0 Nov 16 19:14 /scratch/bsonghao/nh3_diabatization_2d_at_mode_7_8_dist-0.1_-0.3.F77
-rw-r--r-- 1 bsonghao nooijen    1864 Nov 16 19:14 /scratch/bsonghao/nh3_diabatization_2d_at_mode_7_8_dist-0.1_-0.3.F78
-rw-r--r-- 1 bsonghao nooijen   39208 Nov 16 19:14 /scratch/bsonghao/nh3_diabatization_2d_at_mode_7_8_dist-0.1_-0.3.F79
-rw-r--r-- 1 bsonghao nooijen     104 Nov 16 19:14 /scratch/bsonghao/nh3_diabatization_2d_at_mode_7_8_dist-0.1_-0.3.F80
-rw-r--r-- 1 bsonghao nooijen   13472 Nov 16 19:14 /scratch/bsonghao/nh3_diabatization_2d_at_mode_7_8_dist-0.1_-0.3.F81
-rw-r--r-- 1 bsonghao nooijen      16 Nov 16 19:14 /scratch/bsonghao/nh3_diabatization_2d_at_mode_7_8_dist-0.1_-0.3.F82
-rw-r--r-- 1 bsonghao nooijen   19216 Nov 16 19:14 /scratch/bsonghao/nh3_diabatization_2d_at_mode_7_8_dist-0.1_-0.3.F83
-rw-r--r-- 1 bsonghao nooijen   29712 Nov 16 19:14 /scratch/bsonghao/nh3_diabatization_2d_at_mode_7_8_dist-0.1_-0.3.F84
-rw-r--r-- 1 bsonghao nooijen  401576 Nov 16 19:14 /scratch/bsonghao/nh3_diabatization_2d_at_mode_7_8_dist-0.1_-0.3.F85
-rw-r--r-- 1 bsonghao nooijen  903672 Nov 16 19:14 /scratch/bsonghao/nh3_diabatization_2d_at_mode_7_8_dist-0.1_-0.3.F86
-rw-r--r-- 1 bsonghao nooijen     656 Nov 16 19:14 /scratch/bsonghao/nh3_diabatization_2d_at_mode_7_8_dist-0.1_-0.3.F87
-rw-r--r-- 1 bsonghao nooijen   27600 Nov 16 19:14 /scratch/bsonghao/nh3_diabatization_2d_at_mode_7_8_dist-0.1_-0.3.F88
-rw-r--r-- 1 bsonghao nooijen     240 Nov 16 19:14 /scratch/bsonghao/nh3_diabatization_2d_at_mode_7_8_dist-0.1_-0.3.F89
-rw-r--r-- 1 bsonghao nooijen       0 Nov 16 19:14 /scratch/bsonghao/nh3_diabatization_2d_at_mode_7_8_dist-0.1_-0.3.F90
-rw-r--r-- 1 bsonghao nooijen   13760 Nov 16 19:14 /scratch/bsonghao/nh3_diabatization_2d_at_mode_7_8_dist-0.1_-0.3.F91
-rw-r--r-- 1 bsonghao nooijen   22776 Nov 16 19:14 /scratch/bsonghao/nh3_diabatization_2d_at_mode_7_8_dist-0.1_-0.3.F92
-rw-r--r-- 1 bsonghao nooijen   23168 Nov 16 19:14 /scratch/bsonghao/nh3_diabatization_2d_at_mode_7_8_dist-0.1_-0.3.F93
-rw-r--r-- 1 bsonghao nooijen   22776 Nov 16 19:14 /scratch/bsonghao/nh3_diabatization_2d_at_mode_7_8_dist-0.1_-0.3.F94
-rw-r--r-- 1 bsonghao nooijen   13760 Nov 16 19:14 /scratch/bsonghao/nh3_diabatization_2d_at_mode_7_8_dist-0.1_-0.3.F95
-rw-r--r-- 1 bsonghao nooijen   29440 Nov 16 19:14 /scratch/bsonghao/nh3_diabatization_2d_at_mode_7_8_dist-0.1_-0.3.F96
-rw-r--r-- 1 bsonghao nooijen    1184 Nov 16 19:14 /scratch/bsonghao/nh3_diabatization_2d_at_mode_7_8_dist-0.1_-0.3.F97
-rw-r--r-- 1 bsonghao nooijen    9808 Nov 16 19:14 /scratch/bsonghao/nh3_diabatization_2d_at_mode_7_8_dist-0.1_-0.3.F98
-rw-r--r-- 1 bsonghao nooijen   30264 Nov 16 19:14 /scratch/bsonghao/nh3_diabatization_2d_at_mode_7_8_dist-0.1_-0.3.F99
ls: No match.
ls: No match.
ls: No match.
Wed 16 Nov 2022 07:14:48 PM EST
0.288u 0.048s 0:15.67 2.0%	0+0k 48+224io 0pf+0w
