----- GAMESS execution script 'rungms' -----
This job is running on host io002
under operating system Linux at Wed 16 Nov 2022 07:57:53 PM EST
Available scratch disk space (Kbyte units) at beginning of the job is
Filesystem       1K-blocks       Used   Available Use% Mounted on
/dev/sdc1      15378471580 3278917120 11318349060  23% /scratch
GAMESS temporary binary files will be written to /scratch/bsonghao
GAMESS supplementary output files will be written to /home/bsonghao/.gamess_ascii_files/267638
Copying input file nh3_diabatization_2d_at_mode_7_8_dist0.5_-0.7.inp to your run's scratch directory...
cp nh3_diabatization_2d_at_mode_7_8_dist0.5_-0.7.inp /scratch/bsonghao/nh3_diabatization_2d_at_mode_7_8_dist0.5_-0.7.F05
unset echo
/home/bjb2chen/gamess/ddikick.x /home/bjb2chen/gamess/gamess.00.x nh3_diabatization_2d_at_mode_7_8_dist0.5_-0.7 -ddi 1 1 io002 -scr /scratch/bsonghao

 Distributed Data Interface kickoff program.
 Initiating 1 compute processes on 1 nodes to run the following command:
 /home/bjb2chen/gamess/gamess.00.x nh3_diabatization_2d_at_mode_7_8_dist0.5_-0.7 

          ******************************************************
          *         GAMESS VERSION = 02 AUG 2018 (R2)         *
          *             FROM IOWA STATE UNIVERSITY             *
          * M.W.SCHMIDT, K.K.BALDRIDGE, J.A.BOATZ, S.T.ELBERT, *
          *   M.S.GORDON, J.H.JENSEN, S.KOSEKI, N.MATSUNAGA,   *
          *          K.A.NGUYEN, S.J.SU, T.L.WINDUS,           *
          *       TOGETHER WITH M.DUPUIS, J.A.MONTGOMERY       *
          *         J.COMPUT.CHEM.  14, 1347-1363(1993)        *
          **************** 64 BIT LINUX VERSION ****************

  SINCE 1993, STUDENTS AND POSTDOCS WORKING AT IOWA STATE UNIVERSITY
  AND ALSO IN THEIR VARIOUS JOBS AFTER LEAVING ISU HAVE MADE IMPORTANT
  CONTRIBUTIONS TO THE CODE:
     IVANA ADAMOVIC, CHRISTINE AIKENS, YURI ALEXEEV, POOJA ARORA,
     ANDREY ASADCHEV, ROB BELL, PRADIPTA BANDYOPADHYAY, JONATHAN BENTZ,
     BRETT BODE, KURT BRORSEN, CALEB CARLIN, GALINA CHABAN, WEI CHEN,
     CHEOL HO CHOI, PAUL DAY, ALBERT DEFUSCO, NUWAN DESILVA, TIM DUDLEY,
     DMITRI FEDOROV, ALEX FINDLATER, GRAHAM FLETCHER, MARK FREITAG,
     KURT GLAESEMANN, ANASTASIA GUININA,
     DAN KEMP, GRANT MERRILL, NORIYUKI MINEZAWA, JONATHAN MULLIN,
     TAKESHI NAGATA, SEAN NEDD, HEATHER NETZLOFF, BOSILJKA NJEGIC, RYAN OLSON,
     MIKE PAK, BUU PHAM,
     SPENCER PRUITT, LUKE ROSKOP, JIM SHOEMAKER, LYUDMILA SLIPCHENKO,
     TONY SMITH, SAROM SOK LEANG, JIE SONG, TETSUYA TAKETSUGU, SIMON WEBB,
     PENG XU, SOOHAENG YOO, FEDERICO ZAHARIEV

  ADDITIONAL CODE HAS BEEN PROVIDED BY COLLABORATORS IN OTHER GROUPS:
     IOWA STATE UNIVERSITY:
          JOE IVANIC, AARON WEST, LAIMUTIS BYTAUTAS, KLAUS RUEDENBERG
     UNIVERSITY OF TOKYO: KIMIHIKO HIRAO, TAKAHITO NAKAJIMA,
          TAKAO TSUNEDA, MUNEAKI KAMIYA, SUSUMU YANAGISAWA,
          KIYOSHI YAGI, MAHITO CHIBA, SEIKEN TOKURA, NAOAKI KAWAKAMI
     UNIVERSITY OF AARHUS: FRANK JENSEN
     UNIVERSITY OF IOWA: VISVALDAS KAIRYS, HUI LI
     NATIONAL INST. OF STANDARDS AND TECHNOLOGY: WALT STEVENS, DAVID GARMER
     UNIVERSITY OF PISA: BENEDETTA MENNUCCI, JACOPO TOMASI
     UNIVERSITY OF MEMPHIS: HENRY KURTZ, PRAKASHAN KORAMBATH
     UNIVERSITY OF ALBERTA: TOBY ZENG, MARIUSZ KLOBUKOWSKI
     UNIVERSITY OF NEW ENGLAND: MARK SPACKMAN
     MIE UNIVERSITY: HIROAKI UMEDA
     NAT. INST. OF ADVANCED INDUSTRIAL SCIENCE AND TECHNOLOGY: KAZUO KITAURA
     MICHIGAN STATE UNIVERSITY:
          KAROL KOWALSKI, MARTA WLOCH, JEFFREY GOUR, JESSE LUTZ,
          WEI LI, JUN SHEN, J. EMILIANO DEUSTUA, PIOTR PIECUCH
     UNIVERSITY OF MINNESOTA:
          YINAN SHU
     UNIVERSITY OF SILESIA: MONIKA MUSIAL, STANISLAW KUCHARSKI
     FACULTES UNIVERSITAIRES NOTRE-DAME DE LA PAIX:
          OLIVIER QUINET, BENOIT CHAMPAGNE
     UNIVERSITY OF CALIFORNIA - SANTA BARBARA: BERNARD KIRTMAN
     INSTITUTE FOR MOLECULAR SCIENCE:
          KAZUYA ISHIMURA, MICHIO KATOUDA, AND SHIGERU NAGASE
     UNIVERSITY OF NOTRE DAME: ANNA POMOGAEVA, DAN CHIPMAN
     KYUSHU UNIVERSITY:
          HARUYUKI NAKANO,
          FENG LONG GU, JACEK KORCHOWIEC, MARCIN MAKOWSKI, AND YURIKO AOKI,
          HIROTOSHI MORI AND EISAKU MIYOSHI
     PENNSYLVANIA STATE UNIVERSITY:
          TZVETELIN IORDANOV, CHET SWALINA, JONATHAN SKONE,
          SHARON HAMMES-SCHIFFER
     WASEDA UNIVERSITY:
          MASATO KOBAYASHI, TOMOKO AKAMA, TSUGUKI TOUMA,
          TAKESHI YOSHIKAWA, YASUHIRO IKABATA, JUNJI SEINO,
          YUYA NAKAJIMA, HIROMI NAKAI
     NANJING UNIVERSITY: SHUHUA LI
     UNIVERSITY OF NEBRASKA:
          PEIFENG SU, DEJUN SI, NANDUN THELLAMUREGE, YALI WANG, HUI LI
     UNIVERSITY OF ZURICH: ROBERTO PEVERATI, KIM BALDRIDGE
     N. COPERNICUS UNIVERSITY AND JACKSON STATE UNIVERSITY:
          MARIA BARYSZ
     UNIVERSITY OF COPENHAGEN: Jimmy Kromann, CASPER STEINMANN
     TOKYO INSTITUTE OF TECHNOLOGY: HIROYA NAKATA
     NAGOYA UNIVERSITY: YOSHIO NISHIMOTO, STEPHAN IRLE
     MOSCOW STATE UNIVERSITY: VLADIMIR MIRONOV

 EXECUTION OF GAMESS BEGUN Wed Nov 16 19:57:53 2022

            ECHO OF THE FIRST FEW INPUT CARDS -
 INPUT CARD> $system kdiag=3 mwords=100 memddi=1000 parall=.t. $end                         
 INPUT CARD> $contrl runtyp=energy ispher=1 $end                                            
 INPUT CARD> $contrl icut=9 itol=20 inttyp=rysquad qmttol=1.0d-05 nosym=1 $end              
 INPUT CARD> $scf    npunch=2 conv=1.0d-06 dirscf=.t.      $end                             
 INPUT CARD> $contrl scftyp=mcscf  mult=2 maxit=200 icharg=1 mplevl=2 $end                  
 INPUT CARD> $guess  guess=moread norb=29 purify=.t. $end                                   
 INPUT CARD> $basis  gbasis=ccd $end                                                        
 INPUT CARD> $mcscf  cistep=gmcci fullnr=.t. finci=mos                                      
 INPUT CARD>         acurcy=1.d-6 maxit=100 $end                                            
 INPUT CARD> $trans  dirtrf=.t. $end                                                        
 INPUT CARD> $mrmp   mrpt=gmcpt rdvecs=.f. $end                                             
 INPUT CARD> $gmcpt  nmofzc=0 nmodoc=1 nmoact=7 nelact=7 stsym(1)=A                         
 INPUT CARD>         reftyp=ormas nspace=1 mstart(1)=2 mine(1)=7 maxe(1)=7                  
 INPUT CARD>         kstate(1)=1,1,1                                                        
 INPUT CARD>         wstate(1)=1,1,1                                                        
 INPUT CARD>         iwgt=0 thrwgt=-1.0 krot=.f. kszdoe=.f. knospn=.f.                      
 INPUT CARD>         thrde=-1.0 edshft=0.02 $end                                            
 INPUT CARD> $data                                                                          
 INPUT CARD> NH3+ 3 states calculation at NH3 structure.                                    
 INPUT CARD> c1                                                                             
 INPUT CARD>N 7.0 0.04360242600000001 -0.031144515 -0.1693803062                            
 INPUT CARD>H 1.0 -0.63065634 0.5724235548000001 0.46315297710000003                        
 INPUT CARD>H 1.0 -1.012782911 -0.5045387118 0.23454561610000002                            
 INPUT CARD>H 1.0 1.037571834 0.364878706 0.0716763021                                      
 INPUT CARD>$end                                                                            
 INPUT CARD>--- OPTIMIZED RHF      MO-S --- GENERATED AT Mon Nov 14 16:47:08 2022           
 INPUT CARD>E=      -56.3825050291, E(NUC)=   11.8429239490                                 
 INPUT CARD> $VEC                                                                           
 INPUT CARD> 1  1-1.00134066E+00-2.25158504E-03 3.44925845E-03 0.00000000E+00 0.00000000E+00
 INPUT CARD> 1  2-2.13170927E-03 0.00000000E+00 0.00000000E+00 6.57129898E-04-6.87950443E-05
 INPUT CARD> 1  3-6.87950443E-05 1.37590089E-04 0.00000000E+00 0.00000000E+00 0.00000000E+00
 INPUT CARD> 1  4 3.25502815E-04-4.84772356E-04 3.62525460E-04-6.27912517E-04-3.45956485E-04
 INPUT CARD> 1  5 3.25502815E-04-4.84772356E-04 3.62525460E-04 6.27912517E-04-3.45956485E-04
 INPUT CARD> 1  6 3.25502815E-04-4.84772356E-04-7.25050921E-04 0.00000000E+00-3.45956485E-04
 INPUT CARD> 2  1 1.31286642E-02-4.05911371E-01-2.82090992E-01 0.00000000E+00 0.00000000E+00
 INPUT CARD> 2  2-7.71489043E-02 0.00000000E+00 0.00000000E+00 9.73717494E-03 6.62450916E-04
 INPUT CARD> 2  3 6.62450916E-04-1.32490183E-03 0.00000000E+00 0.00000000E+00 0.00000000E+00
 INPUT CARD> 2  4-1.96090317E-01-1.96656153E-02-1.74855877E-02 3.02859263E-02 8.68214399E-03
 INPUT CARD> 2  5-1.96090317E-01-1.96656153E-02-1.74855877E-02-3.02859263E-02 8.68214399E-03
 INPUT CARD> 2  6-1.96090317E-01-1.96656153E-02 3.49711754E-02 0.00000000E+00 8.68214399E-03
 INPUT CARD> 3  1 0.00000000E+00 0.00000000E+00 0.00000000E+00 4.48608762E-01 0.00000000E+00
 INPUT CARD> 3  2 0.00000000E+00 2.18692520E-01 0.00000000E+00 0.00000000E+00 1.30198027E-02
 INPUT CARD> 3  3-1.30198027E-02 0.00000000E+00 0.00000000E+00 2.71832968E-02 0.00000000E+00
 INPUT CARD> 3  4-1.85332726E-01-7.03958951E-02 8.47929477E-03 1.95242443E-02 8.32835058E-03
 INPUT CARD> 3  5-1.85332726E-01-7.03958951E-02 8.47929477E-03-1.95242443E-02 8.32835058E-03
 INPUT CARD> 3  6 3.70665453E-01 1.40791790E-01-2.53376884E-02 0.00000000E+00-1.66567012E-02
 INPUT CARD> 4  1 0.00000000E+00 0.00000000E+00 0.00000000E+00 0.00000000E+00 4.48608762E-01
 INPUT CARD> 4  2 0.00000000E+00 0.00000000E+00 2.18692520E-01 0.00000000E+00 0.00000000E+00
 INPUT CARD> 4  3 0.00000000E+00 0.00000000E+00-1.50339731E-02 0.00000000E+00 2.71832968E-02
 INPUT CARD> 4  4 3.21005698E-01 1.21929267E-01 1.95242443E-02-1.40653607E-02-1.44251263E-02
  100000000 WORDS OF MEMORY AVAILABLE

     BASIS OPTIONS
     -------------
     GBASIS=CCD          IGAUSS=       0      POLAR=NONE    
     NDFUNC=       0     NFFUNC=       0     DIFFSP=       F
     NPFUNC=       0      DIFFS=       F     BASNAM=        


     RUN TITLE
     ---------
  NH3+ 3 states calculation at NH3 structure.                                    

 THE POINT GROUP OF THE MOLECULE IS C1      
 THE ORDER OF THE PRINCIPAL AXIS IS     0

 ATOM      ATOMIC                      COORDINATES (BOHR)
           CHARGE         X                   Y                   Z
 N           7.0     0.0823966375       -0.0588545994       -0.3200823664
 H           1.0    -1.1917676750        1.0817236675        0.8752322171
 H           1.0    -1.9138821868       -0.9534399155        0.4432269461
 H           1.0     1.9607264588        0.6895207731        0.1354485708

          INTERNUCLEAR DISTANCES (ANGS.)
          ------------------------------

                1 N          2 H          3 H          4 H     

   1 N       0.0000000    1.1040913 *  1.2260539 *  1.0967761 *
   2 H       1.1040913 *  0.0000000    1.1653882 *  1.7260690 *
   3 H       1.2260539 *  1.1653882 *  0.0000000    2.2330176 *
   4 H       1.0967761 *  1.7260690 *  2.2330176 *  0.0000000  

  * ... LESS THAN  3.000


     ATOMIC BASIS SET
     ----------------
 THE CONTRACTED PRIMITIVE FUNCTIONS HAVE BEEN UNNORMALIZED
 THE CONTRACTED BASIS FUNCTIONS ARE NOW NORMALIZED TO UNITY

  SHELL TYPE  PRIMITIVE        EXPONENT          CONTRACTION COEFFICIENT(S)

 N         

      1   S       1          9046.0000000    0.000699617413
      1   S       2          1357.0000000    0.005386054630
      1   S       3           309.3000000    0.027391021189
      1   S       4            87.7300000    0.103150591982
      1   S       5            28.5600000    0.278570663317
      1   S       6            10.2100000    0.448294849454
      1   S       7             3.8380000    0.278085928395
      1   S       8             0.7466000    0.015431561233

      2   S       9          9046.0000000   -0.000304990096
      2   S      10          1357.0000000   -0.002408026379
      2   S      11           309.3000000   -0.011944448725
      2   S      12            87.7300000   -0.048925992909
      2   S      13            28.5600000   -0.134472724725
      2   S      14            10.2100000   -0.315112577700
      2   S      15             3.8380000   -0.242857832550
      2   S      16             0.7466000    1.094382206854

      3   S      17             0.2248000    1.000000000000

      4   P      18            13.5500000    0.058905676772
      4   P      19             2.9170000    0.320461106714
      4   P      20             0.7973000    0.753042061792

      5   P      21             0.2185000    1.000000000000

      6   D      22             0.8170000    1.000000000000

 H         

      7   S      23            13.0100000    0.033498726390
      7   S      24             1.9620000    0.234800801174
      7   S      25             0.4446000    0.813682957883

      8   S      26             0.1220000    1.000000000000

      9   P      27             0.7270000    1.000000000000

 H         

     10   S      28            13.0100000    0.033498726390
     10   S      29             1.9620000    0.234800801174
     10   S      30             0.4446000    0.813682957883

     11   S      31             0.1220000    1.000000000000

     12   P      32             0.7270000    1.000000000000

 H         

     13   S      33            13.0100000    0.033498726390
     13   S      34             1.9620000    0.234800801174
     13   S      35             0.4446000    0.813682957883

     14   S      36             0.1220000    1.000000000000

     15   P      37             0.7270000    1.000000000000

 TOTAL NUMBER OF BASIS SET SHELLS             =   15
 NUMBER OF CARTESIAN GAUSSIAN BASIS FUNCTIONS =   30
 NOTE: THIS RUN WILL RESTRICT THE MO VARIATION SPACE TO SPHERICAL HARMONICS.
 THE NUMBER OF ORBITALS KEPT IN THE VARIATIONAL SPACE WILL BE PRINTED LATER.
 NUMBER OF ELECTRONS                          =    9
 CHARGE OF MOLECULE                           =    1
 SPIN MULTIPLICITY                            =    2
 NUMBER OF OCCUPIED ORBITALS (ALPHA)          =    5
 NUMBER OF OCCUPIED ORBITALS (BETA )          =    4
 TOTAL NUMBER OF ATOMS                        =    4
 THE NUCLEAR REPULSION ENERGY IS       10.7513097608

     $CONTRL OPTIONS
     ---------------
 SCFTYP=MCSCF        RUNTYP=ENERGY       EXETYP=RUN     
 MPLEVL=       2     CITYP =NONE         CCTYP =NONE         VBTYP =NONE    
 DFTTYP=NONE         TDDFT =NONE    
 MULT  =       2     ICHARG=       1     NZVAR =       0     COORD =UNIQUE  
 PP    =NONE         RELWFN=NONE         LOCAL =NONE         NUMGRD=       F
 ISPHER=       1     NOSYM =       1     MAXIT =     200     UNITS =ANGS    
 PLTORB=       F     MOLPLT=       F     AIMPAC=       F     FRIEND=        
 NPRINT=       7     IREST =       0     GEOM  =INPUT   
 NORMF =       0     NORMP =       0     ITOL  =      20     ICUT  =       9
 INTTYP=RYSQUAD      GRDTYP=BEST         QMTTOL= 1.0E-05

     $SYSTEM OPTIONS
     ---------------
  REPLICATED MEMORY=   100000000 WORDS (ON EVERY NODE).
 DISTRIBUTED MEMDDI=        1000 MILLION WORDS IN AGGREGATE,
 MEMDDI DISTRIBUTED OVER   1 PROCESSORS IS  1000000000 WORDS/PROCESSOR.
 TOTAL MEMORY REQUESTED ON EACH PROCESSOR=  1100000000 WORDS.
 TIMLIM=      525600.00 MINUTES, OR     365.0 DAYS.
 PARALL= T  BALTYP=  DLB     KDIAG=    3  COREFL= F
 MXSEQ2=     300 MXSEQ3=     150  mem10=         0

          ----------------
          PROPERTIES INPUT
          ----------------

     MOMENTS            FIELD           POTENTIAL          DENSITY
 IEMOM =       1   IEFLD =       0   IEPOT =       0   IEDEN =       0
 WHERE =COMASS     WHERE =NUCLEI     WHERE =NUCLEI     WHERE =NUCLEI  
 OUTPUT=BOTH       OUTPUT=BOTH       OUTPUT=BOTH       OUTPUT=BOTH    
 IEMINT=       0   IEFINT=       0                     IEDINT=       0
                                                       MORB  =       0

     -------------------------------
     INTEGRAL TRANSFORMATION OPTIONS
     -------------------------------
     NWORD  =            0
     CUTOFF = 1.0E-09     MPTRAN =       0
     DIRTRF =       T     AOINTS =DUP     

          ----------------------
          MCSCF INPUT PARAMETERS
          ----------------------
 CONVERGER SELECTION: FOCAS = F  SOSCF = F  FULLNR = T  QUD = F  JACOBI = F
 SECULAR EQUATION METHOD CISTEP = GMCCI   
 --- GENERAL INPUT OPTIONS:
 MAXIT =     100  MICIT =       1  ACURCY= 1.000E-06
 DAMP  =   0.000  CANONC=       T  ENGTOL= 1.000E-10
 EKT   =       F  NPUNCH=       2  NWORD =         0
 REGENERATE CI AFTER CONVERGENCE = NONE    
 DIABATIZATION AFTER CONVERGENCE =        F
 --- INPUT FOR FULLNR CONVERGER:
 METHOD=DM2       FORS  =       F  DROPC =       T
 LINSER=       F  FCORE =       F  NORB  =      30

          ----------------------
          INTEGRAL INPUT OPTIONS
          ----------------------
 NOPK  =       1 NORDER=       0 SCHWRZ=       T

 ------------------------------------------
 MULTIREFERENCE PERTURBATION THEORY CONTROL
 ------------------------------------------
 MRPT=GMCPT    READ CONVERGED MCSCF VECTORS= F


     ------------------------------------------
     THE POINT GROUP IS C1 , NAXIS= 1, ORDER= 1
     ------------------------------------------

 -- VARIATIONAL SPACE WILL BE RESTRICTED TO PURE SPHERICAL HARMONICS ONLY --
 AFTER EXCLUDING CONTAMINANT COMBINATIONS FROM THE CARTESIAN GAUSSIAN BASIS
 SET, THE NUMBER OF SPHERICAL HARMONICS KEPT IN THE VARIATION SPACE IS   29

     DIMENSIONS OF THE SYMMETRY SUBSPACES ARE
 A   =   29

 ..... DONE SETTING UP THE RUN .....
 CPU     0: STEP CPU TIME=     0.04 TOTAL CPU TIME=          0.0 (      0.0 MIN)
 TOTAL WALL CLOCK TIME=          0.0 SECONDS, CPU UTILIZATION IS   100.00%

          ********************
          1 ELECTRON INTEGRALS
          ********************
 TIME TO DO   DIPOLE INTEGRALS=      0.00
 ...... END OF ONE-ELECTRON INTEGRALS ......
 CPU     0: STEP CPU TIME=     0.00 TOTAL CPU TIME=          0.0 (      0.0 MIN)
 TOTAL WALL CLOCK TIME=          0.0 SECONDS, CPU UTILIZATION IS   100.00%

          -------------
          GUESS OPTIONS
          -------------
          GUESS =MOREAD            NORB  =      29          NORDER=       0
          MIX   =       F          PRTMO =       F          PUNMO =       F
          TOLZ  = 1.0E-08          TOLE  = 1.0E-05
          SYMDEN=       F          PURIFY=       T

 INITIAL GUESS ORBITALS GENERATED BY MOREAD   ROUTINE.

 STATISTICS FOR GENERATION OF SYMMETRY ORBITAL -Q- MATRIX
 NUMBER OF CARTESIAN ATOMIC ORBITALS=         30
 NUMBER OF SPHERICAL CONTAMINANTS DROPPED=     1
 NUMBER OF LINEARLY DEPENDENT MOS DROPPED=     0
 TOTAL NUMBER OF MOS IN VARIATION SPACE=      29
 ORBITAL PURIFICATION WILL OCCUR

 SYMMETRIES FOR INITIAL GUESS ORBITALS FOLLOW.   BOTH SET(S).
     5 ORBITALS ARE OCCUPIED (    1 CORE ORBITALS).
     1=A        2=A        3=A        4=A        5=A        6=A        7=A   
     8=A        9=A       10=A       11=A       12=A       13=A       14=A   
    15=A       16=A       17=A       18=A       19=A       20=A       21=A   
    22=A       23=A       24=A       25=A       26=A       27=A       28=A   
    29=A   
 ...... END OF INITIAL ORBITAL SELECTION ......
 CPU     0: STEP CPU TIME=     0.00 TOTAL CPU TIME=          0.0 (      0.0 MIN)
 TOTAL WALL CLOCK TIME=          0.1 SECONDS, CPU UTILIZATION IS    80.00%

                    ----------------------
                    AO INTEGRAL TECHNOLOGY
                    ----------------------
     S,P,L SHELL ROTATED AXIS INTEGRALS, REPROGRAMMED BY
        KAZUYA ISHIMURA (IMS) AND JOSE SIERRA (SYNSTAR).
     S,P,D,L SHELL ROTATED AXIS INTEGRALS PROGRAMMED BY
        KAZUYA ISHIMURA (INSTITUTE FOR MOLECULAR SCIENCE).
     S,P,D,F,G SHELL TO TOTAL QUARTET ANGULAR MOMENTUM SUM 5,
        ERIC PROGRAM BY GRAHAM FLETCHER (ELORET AND NASA ADVANCED
        SUPERCOMPUTING DIVISION, AMES RESEARCH CENTER).
     S,P,D,F,G,L SHELL GENERAL RYS QUADRATURE PROGRAMMED BY
        MICHEL DUPUIS (PACIFIC NORTHWEST NATIONAL LABORATORY).

          --------------------
          2 ELECTRON INTEGRALS
          --------------------

 DIRECT SCF METHOD SKIPS INTEGRAL STORAGE ON DISK.
 DIRECT TRANSFORMATION SKIPS AO INTEGRAL STORAGE ON DISK.
  ...... END OF TWO-ELECTRON INTEGRALS .....
 STEP CPU TIME =     0.03 TOTAL CPU TIME =          0.1 (      0.0 MIN)
 TOTAL WALL CLOCK TIME=          0.1 SECONDS, CPU UTILIZATION IS   100.00%
 DDI: Creating Array [0] - 900 x 36 = 32400 words.
 DDI: Creating Array [1] - 21 x 288 = 6048 words.
 DDI: Creating Array [2] - 36 x 36 = 1296 words.
 DDI: Creating Array [3] - 465 x 36 = 16740 words.

          -----------------
          MCSCF CALCULATION
          -----------------

 ----- NUCLEAR ENERGY ----- =        10.7513097608

     -------------------------------------------------
     GMC-PT/GMC-QDPT or general MCSCF input parameters
     -------------------------------------------------
 # of frozen core orbs. =         0 ->         0
 # of doubly occ. orbs. =         1
 # of active      orbs. =         7
 # of virtual     orbs. =        21
 # of active electrons  =         7
 # of states in CI      =         3
 Highest state in CI    =         3
 kstate =  1 1 1
 avecoe =  0.333 0.333 0.333
 State symmetry           = A           
 Assigned symmetry number = 1

 <<<Act. MO sym.: 1111111

 <<<Division of 1-ext.:  0
 <<<Division of 2-ext.:  0

 *** Reference space

 Reference type: ORMAS (= Occupation restricted multiple active space)
 # of orbitals          =  7
 # of minimum electrons =  7
 # of maximum electrons =  7
 State symmetry    =    1 (input)
 2*Sz              =    1 (input)
 Spin multiplicity =    2 (input)
 Dimension of reference space =      1225  (from      3432 walks)

 Dimension of reference space =      1225  (from      1225 walks)

 <<<Ionized spaces for Ref-CI:
      0:         1225 /   -1-0:         1960 /  0-1-0:         2891

 EVALUATING EXCHANGE INTEGRALS FOR DIRECT INTEGRAL TRANSFORMATION
 SCHWARZ INEQUALITY OVERHEAD:       465 INTEGRALS, T=        0.00

     --------------------------------------------
     PARTIAL TWO ELECTRON INTEGRAL TRANSFORMATION
     --------------------------------------------

 NUMBER OF CORE MOLECULAR ORBITALS     =    1
 NUMBER OF OCCUPIED MOLECULAR ORBITALS =    8
 TOTAL NUMBER OF MOLECULAR ORBITALS    =   29
 TOTAL NUMBER OF ATOMIC ORBITALS       =   30
 THRESHOLD FOR KEEPING TRANSFORMED 2E- INTEGRALS = 1.000E-09

 -------------------------------     ------------------------------
 DISTRIBUTED DATA TRANSFORMATION     PROGRAM WRITTEN BY G. FLETCHER
 -------------------------------     ------------------------------

 THE DISTRIBUTED MEMORY REQUIRED FOR THIS STEP IS MEMDDI=         1 MWORDS
 CREATING DISTRIBUTED STORAGE FOR [VIR OCC|VIR OCC] INTEGRALS
 CREATING DISTRIBUTED STORAGE FOR [VIR OCC|OCC OCC] INTEGRALS
 CREATING DISTRIBUTED STORAGE FOR [OCC OCC|OCC OCC] INTEGRALS
 CREATING DISTRIBUTED STORAGE FOR [VIR VIR|OCC OCC] INTEGRALS
 FOR    1 PROCESSORS, THE REPLICATED MEMORY NEEDED IS       73700 WORDS.
 SCHWARZ INEQUALITY OVERHEAD:       465 INTEGRALS, T=        0.00

      DIRECT 4-INDEX TRANSFORMATION 
      SCHWARZ INEQUALITY TEST SKIPPED          0 INTEGRAL BLOCKS
 ----- FROZEN CORE ENERGY =       -47.5186559510
 ... END OF INTEGRAL TRANSFORMATION ...
 CPU     0: STEP CPU TIME=     0.21 TOTAL CPU TIME=          0.3 (      0.0 MIN)
 TOTAL WALL CLOCK TIME=          0.3 SECONDS, CPU UTILIZATION IS    96.55%

     --------------------------------     -----------------------------
     MCHF NEWTON-RAPHSON OPTIMIZATION     CODE WRITTEN BY MICHEL DUPUIS
     --------------------------------     -----------------------------
     PARALLEL VERSION WRITTEN BY G. FLETCHER (ELORET)
     NASA ADVANCED SUPERCOMPUTING DIVISION, AMES RESEARCH CENTER

 NUMBER OF INDEPENDENT ORBITAL ROTATION PARAMETERS =   175
 ..... DONE SOLVING NEWTON-RAPHSON EQUATIONS .....
 CPU     0: STEP CPU TIME=     0.75 TOTAL CPU TIME=          1.0 (      0.0 MIN)
 TOTAL WALL CLOCK TIME=          1.0 SECONDS, CPU UTILIZATION IS    99.04%
 ..... DONE WITH NTN-RPH ORBITAL ROTATIONS ..... 
 CPU     0: STEP CPU TIME=     0.00 TOTAL CPU TIME=          1.0 (      0.0 MIN)
 TOTAL WALL CLOCK TIME=          1.0 SECONDS, CPU UTILIZATION IS    99.04%
 MAXIMUM MEMORY USED BY NTN-RPH CODE WAS     57645 WORDS.

 ITER     TOTAL ENERGY      DEL(E)  LAGRANGIAN ASYMMETRY   SQCDF  MICIT   DAMP
   1      -55.554732078 -0.554732078  0.155463   10    4 8.897E-02  1   0.0000
   2      -55.628232574 -0.073500496  0.020191   12    5 4.569E-01  1   0.0000
   3      -55.665993953 -0.037761379  0.014923   11    6 2.308E-01  1   0.0151
   4      -55.683759818 -0.017765865  0.005307   11    6 4.835E-02  1   0.0067
   5      -55.686402977 -0.002643159  0.001223   14    5 1.664E-03  1   0.0000
   6      -55.686517418 -0.000114441  0.000550   14    5 1.859E-04  1   0.0000
   7      -55.686533320 -0.000015902  0.000252   14    5 4.334E-05  1   0.0000
   8      -55.686536962 -0.000003642  0.000119   14    5 1.154E-05  1   0.0000
   9      -55.686537898 -0.000000936  0.000060   22    5 3.276E-06  1   0.0000
  10      -55.686538154 -0.000000256  0.000033   22    5 9.723E-07  1   0.0000
  11      -55.686538228 -0.000000073  0.000018   22    5 2.998E-07  1   0.0000
  12      -55.686538250 -0.000000022  0.000010   22    5 9.541E-08  1   0.0000
  13      -55.686538256 -0.000000007  0.000006   22    5 3.161E-08  1   0.0000
  14      -55.686538258 -0.000000002  0.000003   22    5 1.068E-08  1   0.0000
  15      -55.686538259 -0.000000001  0.000002   22    5 3.571E-09  1   0.0000
  16      -55.686538259 -0.000000000  0.000002   13    3 1.371E-09  1   0.0000
  17      -55.686538259 -0.000000000  0.000001   12    7 4.693E-10  1   0.0000

          --------------------
          LAGRANGIAN CONVERGED
          --------------------

 FINAL MCSCF ENERGY IS      -55.6865382595 AFTER  17 ITERATIONS

 -MCCI- BASED ON OPTIMIZED ORBITALS
 ----------------------------------

 PLEASE NOTE: IF THE ACTIVE ORBITALS ARE CANONICALIZED BELOW,
 THE FOLLOWING CI EXPANSION COEFFICIENTS AND THE DENSITY DO NOT
 CORRESPOND TO THE PRINTED ORBITALS.  THE PRINTED EXPANSIONS MATCH
 THE ORBITALS USED DURING THE LAST ITERATION.  IF YOU WISH TO SEE
 CI EXPANSIONS BASED ON THE CANONICAL (OR NATURAL) ORBITALS, YOU
 MUST RUN A CI CALCULATION WITH THAT ORBITAL CHOICE READ IN $VEC.

 Averaged energy =     -55.686538259

 State #    1  Energy =     -55.823436821  S =  0.500

      Det      Coef    Occupancy (Ignoring core)
      ---      ----    --------- --------- -----
        1    0.850112  11110001110000
        3    0.056553  11011001110000
        5   -0.076257  01111001110000
        8   -0.120792  10110101110000
       16    0.051324  11100011110000
       17    0.157497  11010011110000
       36    0.353031  11110001101000
       51    0.057173  11100011101000
       52    0.056759  11010011101000
       71    0.153973  11110001011000
      211    0.054225  11110000110100
      386    0.094949  11110001010010
      701   -0.100324  11110001100001
      717    0.068891  11010011100001

 State #    2  Energy =     -55.712243677  S =  0.500

      Det      Coef    Occupancy (Ignoring core)
      ---      ----    --------- --------- -----
        1    0.356242  11110001110000
        8   -0.053057  10110101110000
       17    0.061093  11010011110000
       36   -0.864860  11110001101000
       38   -0.082425  11011001101000
       39   -0.061327  10111001101000
       40    0.073047  01111001101000
       43    0.095231  10110101101000
       52   -0.136814  11010011101000
       71   -0.055929  11110001011000
      281   -0.054640  11110000101100
      456   -0.083151  11110001001010
      463   -0.050816  10110101001010
      701   -0.101703  11110001100001

 State #    3  Energy =     -55.523934280  S =  0.500

      Det      Coef    Occupancy (Ignoring core)
      ---      ----    --------- --------- -----
        1   -0.122431  11110001110000
       36   -0.120554  11110001101000
       71    0.927470  11110001011000
       73    0.062174  11011001011000
       78   -0.060962  10110101011000
       87    0.109493  11010011011000
      122   -0.050657  11010010111000
      246    0.070947  11110001001100
      316    0.085997  11110000011100
      736    0.056119  11110001010001
      806    0.129270  11110001001001
      822   -0.078071  11010011001001

 DENSITY MATRIX OVER ACTIVE MO-S

             1           2           3           4           5

    1    1.9694445
    2   -0.0167715   1.6326182
    3    0.0324095   0.0069411   1.6009386
    4   -0.0049414  -0.0038636   0.0147766   1.6442160
    5    0.1176191   0.0622563  -0.1023924   0.0114983   0.0488219
    6    0.0026752  -0.1447747   0.0381472  -0.0579160  -0.0073797
    7    0.0226906   0.0100662  -0.2050267   0.0916193   0.0225721

             6           7

    6    0.0381575
    7   -0.0121955   0.0658031

 FORMING THE "STANDARD FOCK OPERATOR" IN DIRECT AO INTEGRAL MODE...
 ONLY THE    1 CORE AND   21 VIRTUAL ORBITALS WILL BE CANONICALIZED

          ----------------------
          MCSCF NATURAL ORBITALS
          ----------------------

                      1          2          3          4          5
                  -15.9760     1.9790     1.6528     1.6468     1.6342
                     A          A          A          A          A   
    1  N  1  S    1.001003   0.009405  -0.007210   0.004496  -0.003219
    2  N  1  S   -0.002023   0.431974  -0.126344   0.146370  -0.063599
    3  N  1  S   -0.006422   0.343838  -0.216060   0.203287  -0.100858
    4  N  1  X    0.000078  -0.034793   0.260205   0.384440  -0.001637
    5  N  1  Y    0.000203   0.050294  -0.042222  -0.027686   0.547919
    6  N  1  Z    0.001076   0.079654   0.532896  -0.226744  -0.036790
    7  N  1  X    0.000087  -0.011085   0.144417   0.137212  -0.014935
    8  N  1  Y   -0.000071   0.007064  -0.058015  -0.021255   0.325900
    9  N  1  Z   -0.000593   0.016866   0.366913  -0.125610  -0.055774
   10  N  1 XX    0.000239   0.004145  -0.008790   0.006568  -0.006952
   11  N  1 YY   -0.000133  -0.003197  -0.011394   0.003044   0.008535
   12  N  1 ZZ   -0.000106  -0.000948   0.020184  -0.009612  -0.001583
   13  N  1 XY    0.000046   0.002054   0.003988   0.009014  -0.012872
   14  N  1 XZ   -0.000052  -0.003666   0.006382   0.018143  -0.000101
   15  N  1 YZ    0.000119   0.001640   0.004011  -0.004635   0.022290
   16  H  2  S   -0.001648   0.216373   0.058257  -0.289680   0.247976
   17  H  2  S    0.000301   0.010456   0.026144  -0.059893   0.111719
   18  H  2  X   -0.000573   0.022551   0.013570  -0.001289   0.019445
   19  H  2  Y    0.000575  -0.023673  -0.011096   0.028620   0.002215
   20  H  2  Z    0.000549  -0.019283   0.020425   0.009389  -0.020471
   21  H  3  S   -0.001124   0.152701  -0.010733  -0.230753  -0.259993
   22  H  3  S    0.000287  -0.000637   0.015005  -0.029146  -0.113179
   23  H  3  X   -0.000506   0.022887   0.000042  -0.020505  -0.031132
   24  H  3  Y   -0.000253   0.012761  -0.004389  -0.023955   0.003240
   25  H  3  Z    0.000270  -0.005144   0.023064  -0.002236   0.005385
   26  H  4  S   -0.001528   0.157506   0.229444   0.273867   0.073057
   27  H  4  S    0.000614   0.000359   0.048100   0.035780  -0.006981
   28  H  4  X    0.000790  -0.029842  -0.022359  -0.027113  -0.019270
   29  H  4  Y    0.000294  -0.007968  -0.013259  -0.017381   0.014127
   30  H  4  Z    0.000232  -0.001907   0.015524  -0.015387  -0.002590

                      6          7          8
                    0.0389     0.0277     0.0206
                     A          A          A   
    1  N  1  S   -0.132977  -0.076575   0.111857
    2  N  1  S   -0.473536  -0.319777   0.346780
    3  N  1  S   -0.037933  -0.233478   0.013099
    4  N  1  X   -0.007312   0.465666   0.758708
    5  N  1  Y    0.507369  -0.420576   0.392168
    6  N  1  Z   -0.278460  -0.523729   0.202388
    7  N  1  X    0.037590   0.113531   0.066265
    8  N  1  Y   -0.103143   0.000775   0.027335
    9  N  1  Z    0.062197  -0.003600  -0.086635
   10  N  1 XX    0.055020   0.011963   0.009326
   11  N  1 YY   -0.047820  -0.012323  -0.027242
   12  N  1 ZZ   -0.007200   0.000361   0.017916
   13  N  1 XY    0.061361  -0.027510  -0.037028
   14  N  1 XZ   -0.020241  -0.038677  -0.027689
   15  N  1 YZ    0.002093   0.023867  -0.037930
   16  H  2  S   -0.231350   0.779918  -0.086034
   17  H  2  S   -0.159309   0.205930  -0.049731
   18  H  2  X   -0.018461   0.007154  -0.043663
   19  H  2  Y   -0.022755  -0.050056  -0.012447
   20  H  2  Z    0.026417  -0.006697   0.002921
   21  H  3  S    0.659711   0.129481   0.325916
   22  H  3  S    0.219764  -0.039283   0.120990
   23  H  3  X    0.065358  -0.003732   0.018287
   24  H  3  Y    0.011479   0.038313   0.021963
   25  H  3  Z    0.009726   0.031967   0.009012
   26  H  4  S    0.379859   0.034017  -0.727933
   27  H  4  S    0.072649  -0.027111  -0.157787
   28  H  4  X   -0.028526  -0.014473   0.069866
   29  H  4  Y   -0.028292   0.000301   0.020639
   30  H  4  Z   -0.001167   0.004828  -0.032204

          ------------------------
          MCSCF OPTIMIZED ORBITALS
          ------------------------

                      1          2          3          4          5
                  -15.9760     0.0000     0.0000     0.0000     0.0000
                     A          A          A          A          A   
    1  N  1  S    1.001003  -0.001355  -0.013473   0.012341  -0.013364
    2  N  1  S   -0.002023   0.396396   0.010804   0.001587  -0.191433
    3  N  1  S   -0.006422   0.340498   0.068451  -0.105872  -0.270518
    4  N  1  X    0.000078  -0.007967   0.378981  -0.029511   0.042501
    5  N  1  Y    0.000203   0.022732   0.007303   0.452280  -0.016815
    6  N  1  Z    0.001076   0.049878  -0.007862   0.020124   0.583507
    7  N  1  X    0.000087   0.003258   0.175710  -0.030890   0.069769
    8  N  1  Y   -0.000071  -0.019620  -0.013888   0.336191  -0.065869
    9  N  1  Z   -0.000593   0.027793   0.044037  -0.043229   0.391525
   10  N  1 XX    0.000239   0.007705   0.002350  -0.014813  -0.008252
   11  N  1 YY   -0.000133  -0.006371  -0.000161   0.014101  -0.013468
   12  N  1 ZZ   -0.000106  -0.001335  -0.002190   0.000712   0.021720
   13  N  1 XY    0.000046   0.005872   0.014300  -0.023171   0.005296
   14  N  1 XZ   -0.000052  -0.004872   0.021361  -0.000927  -0.000755
   15  N  1 YZ    0.000119   0.001671   0.002992   0.023338   0.004041
   16  H  2  S   -0.001648   0.207956  -0.229793   0.356292   0.115353
   17  H  2  S    0.000301   0.001910  -0.035718   0.148542   0.026701
   18  H  2  X   -0.000573   0.021420   0.008850   0.023968   0.010997
   19  H  2  Y    0.000575  -0.025643   0.023212  -0.001586  -0.020738
   20  H  2  Z    0.000549  -0.016107   0.016280  -0.026257   0.017319
   21  H  3  S   -0.001124   0.192663  -0.251839  -0.307852   0.122076
   22  H  3  S    0.000287   0.013613  -0.034103  -0.140728   0.042637
   23  H  3  X   -0.000506   0.026830  -0.021763  -0.036105   0.013230
   24  H  3  Y   -0.000253   0.013180  -0.025559   0.006575   0.004408
   25  H  3  Z    0.000270  -0.003491   0.007481   0.005301   0.020525
   26  H  4  S   -0.001528   0.197670   0.421664   0.002922   0.115557
   27  H  4  S    0.000614   0.007933   0.068573  -0.021235   0.035949
   28  H  4  X    0.000790  -0.032938  -0.041653  -0.014762  -0.009401
   29  H  4  Y    0.000294  -0.011398  -0.022148   0.019147  -0.007079
   30  H  4  Z    0.000232  -0.001458  -0.004769  -0.000197   0.020838

                      6          7          8          9         10
                    0.0000     0.0000     0.0000     0.1353     0.2063
                     A          A          A          A          A   
    1  N  1  S    0.172612   0.075408  -0.015289  -0.101685   0.035372
    2  N  1  S    0.661474   0.202501  -0.048305  -0.151351   0.039945
    3  N  1  S    0.219295  -0.089137   0.107131   1.078799  -0.438193
    4  N  1  X   -0.083233   0.924875  -0.023666   0.041116   0.154009
    5  N  1  Y    0.032519   0.116026   0.820651  -0.032604   0.085729
    6  N  1  Z    0.612835  -0.006770   0.129742  -0.146233   0.058310
    7  N  1  X   -0.074906   0.125813  -0.024007  -0.224004  -0.753512
    8  N  1  Y    0.051640   0.021032  -0.020361   0.111953  -0.274204
    9  N  1  Z   -0.054422  -0.065221  -0.009883   0.340441  -0.064933
   10  N  1 XX   -0.041075   0.009592   0.036217   0.072544  -0.045142
   11  N  1 YY    0.031411  -0.027013  -0.035576  -0.038893   0.011746
   12  N  1 ZZ    0.009663   0.017421  -0.000640  -0.033651   0.033396
   13  N  1 XY   -0.030268  -0.048237   0.045970   0.012741  -0.053073
   14  N  1 XZ    0.033016  -0.038438  -0.002591  -0.061674  -0.074561
   15  N  1 YZ   -0.030028  -0.023943  -0.022408   0.038212  -0.024232
   16  H  2  S   -0.426933   0.259178  -0.615685   0.356228   0.155550
   17  H  2  S   -0.060427   0.052653  -0.237991  -0.927537  -0.469494
   18  H  2  X   -0.004831  -0.034079  -0.030881  -0.112568  -0.007790
   19  H  2  Y    0.045574  -0.030079   0.008669  -0.002240  -0.002741
   20  H  2  Z   -0.010740   0.000340   0.020448   0.062299   0.025584
   21  H  3  S   -0.416087   0.287537   0.486269   0.459451   0.223354
   22  H  3  S   -0.076725   0.076154   0.209059  -0.885804  -0.706496
   23  H  3  X   -0.032786   0.009058   0.052004  -0.054402  -0.041353
   24  H  3  Y   -0.028510   0.033430  -0.005331   0.030640   0.001311
   25  H  3  Z   -0.026149   0.022713  -0.008540   0.042510   0.055369
   26  H  4  S   -0.456669  -0.627948   0.005347   0.276620  -0.564301
   27  H  4  S   -0.070181  -0.151655   0.010918  -0.463234   1.909076
   28  H  4  X    0.046312   0.055021   0.010150   0.065251  -0.111673
   29  H  4  Y    0.021758   0.018211  -0.011192  -0.002761  -0.056258
   30  H  4  Z   -0.011836  -0.026424  -0.015888  -0.023867  -0.061505

                     11         12         13         14         15
                    0.2623     0.5295     0.5941     0.7205     0.8504
                     A          A          A          A          A   
    1  N  1  S    0.017949   0.097290  -0.018927   0.087518  -0.455360
    2  N  1  S    0.044433   0.157013   0.077460   0.207429  -1.035076
    3  N  1  S   -0.107329  -0.476018   0.549141  -0.200138   1.640405
    4  N  1  X    0.044863   0.275055   0.170300  -0.397984   0.048348
    5  N  1  Y    0.045687  -0.556414  -0.284673  -0.310675  -0.044232
    6  N  1  Z    0.013610   0.488325  -0.543703  -0.003979   0.271759
    7  N  1  X   -0.123324  -0.572382  -0.724541   1.566560   0.039841
    8  N  1  Y   -0.456338   0.804774   0.805851   0.852761   0.098513
    9  N  1  Z   -0.122912  -0.527691   1.064154  -0.123511  -0.253645
   10  N  1 XX    0.026056   0.023233  -0.061116  -0.034969  -0.120576
   11  N  1 YY   -0.011819   0.000410   0.038076  -0.000420   0.099547
   12  N  1 ZZ   -0.014237  -0.023642   0.023040   0.035389   0.021029
   13  N  1 XY    0.078260  -0.006369   0.012913   0.050712   0.105974
   14  N  1 XZ    0.019384   0.004027   0.009106  -0.099733  -0.027336
   15  N  1 YZ   -0.059860   0.002285  -0.002254  -0.071884   0.055270
   16  H  2  S   -0.643981  -0.125639  -0.669959  -0.007289   0.095074
   17  H  2  S    2.197026  -0.446952  -0.775018   0.016402  -0.218863
   18  H  2  X    0.023238  -0.087536  -0.011631   0.041674   0.234047
   19  H  2  Y   -0.086489   0.019471   0.139129  -0.205598   0.196945
   20  H  2  Z   -0.045548  -0.017781   0.122726   0.067127   0.206741
   21  H  3  S    0.570724   0.228075  -0.175410   0.564865   0.128417
   22  H  3  S   -1.930646   0.335898   0.309347   0.554866  -0.291796
   23  H  3  X   -0.027302  -0.034012  -0.038569   0.225298   0.076890
   24  H  3  Y   -0.073729   0.054185  -0.145953   0.051177  -0.341996
   25  H  3  Z   -0.010426  -0.094482   0.025160   0.200775   0.050518
   26  H  4  S    0.152134   0.360042  -0.263623  -0.636265  -0.157615
   27  H  4  S   -0.341087   0.292312   0.366334  -0.446182  -0.422442
   28  H  4  X   -0.029975  -0.033887  -0.072404   0.142847  -0.033262
   29  H  4  Y    0.014768  -0.010630   0.080156   0.127865   0.263411
   30  H  4  Z    0.001627  -0.027784   0.074380  -0.170409   0.065879

                     16         17         18         19         20
                    1.0408     1.0619     1.1814     1.2918     1.3751
                     A          A          A          A          A   
    1  N  1  S   -0.212465  -0.459286   0.185577  -0.172569  -0.284044
    2  N  1  S   -0.452972  -0.962947   0.397176  -0.372942  -0.616757
    3  N  1  S    0.934828   1.881694  -0.747135   0.606289   0.949502
    4  N  1  X   -0.223145   0.023158  -0.196504   0.003378  -0.004871
    5  N  1  Y   -0.136730  -0.062997  -0.074895   0.043956  -0.006861
    6  N  1  Z   -0.019474   0.080922  -0.025783  -0.024727  -0.081874
    7  N  1  X    1.008643  -0.161007   0.808561   0.337063  -0.044054
    8  N  1  Y    0.495176   0.450822  -0.009982  -0.291085   0.341114
    9  N  1  Z    0.338534   0.106159  -0.380317   0.259776   0.543399
   10  N  1 XX    0.088520   0.000404  -0.002958  -0.047493   0.114821
   11  N  1 YY    0.089547  -0.192818  -0.097010   0.181516  -0.144279
   12  N  1 ZZ   -0.178067   0.192414   0.099969  -0.134024   0.029458
   13  N  1 XY   -0.136791  -0.099772   0.060944   0.032992   0.052424
   14  N  1 XZ    0.058146   0.093793   0.066735  -0.021370  -0.006042
   15  N  1 YZ   -0.070066  -0.101771   0.281173   0.022128  -0.076749
   16  H  2  S   -0.063283  -0.510021   0.288997  -0.109379  -0.312806
   17  H  2  S   -0.125103  -0.303423   0.183129  -0.006049  -0.262517
   18  H  2  X   -0.102379  -0.197778   0.365601  -0.310329   0.020498
   19  H  2  Y    0.330715  -0.240206  -0.142511  -0.068510  -0.094358
   20  H  2  Z   -0.469144   0.149072   0.210493  -0.296840   0.371247
   21  H  3  S    0.467042  -0.271056   0.520735  -0.134052  -0.289023
   22  H  3  S    0.067694  -0.061939   0.069441  -0.002180   0.188166
   23  H  3  X   -0.203913  -0.165068  -0.351736  -0.154571   0.011441
   24  H  3  Y   -0.061962   0.254548   0.189807   0.400473   0.206994
   25  H  3  Z   -0.266175   0.296040  -0.343639  -0.104037  -0.681297
   26  H  4  S   -0.632652  -0.271806  -0.228040  -0.215181  -0.330939
   27  H  4  S   -0.427181  -0.283757  -0.070527  -0.125426  -0.057301
   28  H  4  X    0.177101   0.117132  -0.203123  -0.272912   0.017125
   29  H  4  Y   -0.236048  -0.206200   0.062111   0.727121  -0.156040
   30  H  4  Z    0.093881   0.351815   0.446640  -0.033093  -0.536695

                     21         22         23         24         25
                    1.5760     1.7148     1.8121     2.0121     2.0819
                     A          A          A          A          A   
    1  N  1  S    0.066815  -0.162393   0.075432   0.060109   0.062688
    2  N  1  S    0.067367  -0.432847   0.176377   0.122235   0.138682
    3  N  1  S   -0.752526  -0.295738   0.133163  -0.074981  -0.009834
    4  N  1  X   -0.061441   0.342528   0.449424   0.108015   0.062421
    5  N  1  Y   -0.010929  -0.201878   0.135155   0.125685   0.120644
    6  N  1  Z   -0.032439  -0.238712  -0.030057   0.045679   0.051984
    7  N  1  X    0.702814  -0.271189   0.536238   0.025103   0.060103
    8  N  1  Y    0.352425  -0.060812   0.156266   0.154587  -0.144909
    9  N  1  Z   -0.343738  -0.041067   0.006686  -0.211759   0.117642
   10  N  1 XX    0.059712   0.131740  -0.107448  -0.144415  -0.174645
   11  N  1 YY   -0.058233  -0.014184  -0.040076   0.781918  -0.359423
   12  N  1 ZZ   -0.001478  -0.117556   0.147524  -0.637503   0.534068
   13  N  1 XY    0.126538  -0.054544  -0.050314   0.095456   0.416855
   14  N  1 XZ   -0.054127  -0.121950  -0.209454   0.049559  -0.086846
   15  N  1 YZ   -0.021185   0.267210  -0.170920  -0.097516   0.043943
   16  H  2  S    0.320040  -0.225095   0.061909  -0.130229  -0.177249
   17  H  2  S   -0.191894   0.335280   0.264784  -0.225945  -0.262360
   18  H  2  X   -0.309636   0.738596   0.022702   0.220489   0.143118
   19  H  2  Y   -0.003449  -0.259504  -0.256776   0.196150   0.947113
   20  H  2  Z   -0.056542  -0.536998  -0.124651   0.471458  -0.206653
   21  H  3  S    0.186023  -0.116322   0.070446   0.191469   0.214885
   22  H  3  S    0.579272   0.098243   0.122005   0.272609   0.252640
   23  H  3  X    0.804614   0.350642   0.217475   0.187341   0.133124
   24  H  3  Y   -0.040059   0.238594  -0.089992   0.633982   0.748880
   25  H  3  Z   -0.275814   0.108163  -0.525586   0.082318   0.145183
   26  H  4  S   -0.270365   0.130409  -0.145124  -0.030740  -0.055088
   27  H  4  S    0.104573   0.031816  -0.549116  -0.024901  -0.013374
   28  H  4  X   -0.458704  -0.102450   0.846410   0.253542   0.215630
   29  H  4  Y   -0.197933  -0.129644   0.370142  -0.256866   0.001409
   30  H  4  Z    0.511995  -0.049327   0.439452   0.254559  -0.039902

                     26         27         28         29
                    2.2415     2.4287     2.6387     3.0536
                     A          A          A          A   
    1  N  1  S    0.122207   0.014991  -0.193719  -0.128675
    2  N  1  S    0.231809  -0.021948  -0.236604  -0.155247
    3  N  1  S   -0.481005  -0.790076   2.016658   1.222962
    4  N  1  X    0.034271  -0.214626  -0.209311   0.316953
    5  N  1  Y    0.068637  -0.175733   0.196422  -0.069630
    6  N  1  Z    0.034036  -0.101400   0.266880   0.023042
    7  N  1  X    0.156951  -0.857762  -0.864335   0.498956
    8  N  1  Y   -0.278974  -0.694186   0.428190  -0.044191
    9  N  1  Z   -0.314607  -0.261585   0.654792   0.075588
   10  N  1 XX    0.649481  -0.192881   0.553157   0.991121
   11  N  1 YY   -0.442646   0.095773  -0.212343  -0.372669
   12  N  1 ZZ   -0.206835   0.097107  -0.340814  -0.618452
   13  N  1 XY   -0.554641   0.140986  -0.221572   1.125536
   14  N  1 XZ    0.200383  -0.724514  -0.981064   0.246344
   15  N  1 YZ   -0.437218  -0.788431   0.563548  -0.231959
   16  H  2  S    0.126918   0.349121  -1.290554   0.560133
   17  H  2  S   -0.023487   0.229823  -0.540728   0.119632
   18  H  2  X    0.488643   0.430088  -0.639139   0.262966
   19  H  2  Y    0.436961  -0.079725   0.615182  -0.412588
   20  H  2  Z    0.288500  -0.173678   0.638468  -0.343629
   21  H  3  S    0.283780  -0.426236  -0.548002  -0.619066
   22  H  3  S    0.147300  -0.344511  -0.100878  -0.162407
   23  H  3  X    0.253602  -0.579617  -0.346849  -0.636638
   24  H  3  Y    0.277570  -0.072300  -0.103048  -0.383180
   25  H  3  Z    0.111097   0.032786   0.199913   0.313769
   26  H  4  S    0.049054   0.869836  -0.217146  -1.118228
   27  H  4  S    0.006032   0.402090   0.022160  -0.334898
   28  H  4  X   -0.138704  -0.752229   0.179360   0.876633
   29  H  4  Y    0.553367  -0.279456   0.003555   0.326825
   30  H  4  Z    0.151294   0.172090   0.174169   0.348326
 .....DONE WITH MCSCF ITERATIONS.....
 CPU     0: STEP CPU TIME=    12.37 TOTAL CPU TIME=         13.4 (      0.2 MIN)
 TOTAL WALL CLOCK TIME=         13.4 SECONDS, CPU UTILIZATION IS    99.93%

     ----------------------------------------------------------------
     PROPERTY VALUES FOR THE MCSCF SELF-CONSISTENT FIELD WAVEFUNCTION
     ----------------------------------------------------------------

          -----------------
          ENERGY COMPONENTS
          -----------------

         WAVEFUNCTION NORMALIZATION =       1.0000000000

                ONE ELECTRON ENERGY =     -93.1582402815
                TWO ELECTRON ENERGY =      26.7203922612
           NUCLEAR REPULSION ENERGY =      10.7513097608
                                      ------------------
                       TOTAL ENERGY =     -55.6865382595

 ELECTRON-ELECTRON POTENTIAL ENERGY =      26.7203922612
  NUCLEUS-ELECTRON POTENTIAL ENERGY =    -148.7387390720
   NUCLEUS-NUCLEUS POTENTIAL ENERGY =      10.7513097608
                                      ------------------
             TOTAL POTENTIAL ENERGY =    -111.2670370500
               TOTAL KINETIC ENERGY =      55.5804987906
                 VIRIAL RATIO (V/T) =       2.0019078539

          ---------------------------------------
          MULLIKEN AND LOWDIN POPULATION ANALYSES
          ---------------------------------------

     ATOMIC MULLIKEN POPULATION IN EACH MOLECULAR ORBITAL

                      1          2          3          4          5

                  2.000000   1.979049   1.652831   1.646808   1.634202

    1             2.000468   1.379854   1.463954   0.925596   1.211365
    2            -0.000227   0.290659   0.019379   0.260746   0.165730
    3            -0.000072   0.151988   0.008132   0.187375   0.232212
    4            -0.000168   0.156547   0.161365   0.273091   0.024894

                      6          7          8

                  0.038857   0.027650   0.020604

    1             0.015520   0.014598   0.011240
    2             0.001195   0.012575   0.000199
    3             0.016946   0.000549   0.001483
    4             0.005196  -0.000071   0.007682
 WARNING! MCSCF POPULATIONS SHOWN ABOVE ARE FOR THE NATURAL ORBITALS.
 IGNORE THE ABOVE DATA FOR MCSCF FUNCTIONS WHICH ARE NOT OF -FORS- TYPE.
 THE FOLLOWING POPULATIONS ARE CORRECT FOR ANY MCSCF WAVEFUNCTION.

               ----- POPULATIONS IN EACH AO -----
                             MULLIKEN      LOWDIN
              1  N  1  S      2.00211     1.90675
              2  N  1  S      0.81678     0.58210
              3  N  1  S      0.73635     0.42886
              4  N  1  X      0.61075     0.53338
              5  N  1  Y      0.75946     0.70568
              6  N  1  Z      0.83844     0.79203
              7  N  1  X      0.26977     0.39248
              8  N  1  Y      0.44610     0.50358
              9  N  1  Z      0.52690     0.56785
             10  N  1 XX      0.00063     0.18708
             11  N  1 YY      0.00175     0.15458
             12  N  1 ZZ      0.00426     0.14652
             13  N  1 XY      0.00523     0.00968
             14  N  1 XZ      0.00409     0.01115
             15  N  1 YZ      0.00000     0.00649
             16  H  2  S      0.62642     0.47949
             17  H  2  S      0.06418     0.15619
             18  H  2  X      0.01739     0.03271
             19  H  2  Y      0.02230     0.05027
             20  H  2  Z      0.01996     0.04051
             21  H  3  S      0.48648     0.37506
             22  H  3  S      0.06404     0.15691
             23  H  3  X      0.02424     0.03844
             24  H  3  Y      0.01390     0.03669
             25  H  3  Z      0.00995     0.02267
             26  H  4  S      0.53809     0.42377
             27  H  4  S      0.03677     0.15297
             28  H  4  X      0.03235     0.05463
             29  H  4  Y      0.01180     0.02641
             30  H  4  Z      0.00952     0.02508

          ----- MULLIKEN ATOMIC OVERLAP POPULATIONS -----
          (OFF-DIAGONAL ELEMENTS NEED TO BE MULTIPLIED BY 2)

             1           2           3           4

    1    6.2588899
    2    0.2488831   0.5117859
    3    0.2265198  -0.0066877   0.3839067
    4    0.2883014  -0.0037249  -0.0051262   0.3490863

          TOTAL MULLIKEN AND LOWDIN ATOMIC POPULATIONS
       ATOM         MULL.POP.    CHARGE          LOW.POP.     CHARGE
    1 N             7.022594   -0.022594         6.928214    0.071786
    2 H             0.750257    0.249743         0.759167    0.240833
    3 H             0.598613    0.401387         0.629768    0.370232
    4 H             0.628537    0.371463         0.682851    0.317149

          MULLIKEN SPHERICAL HARMONIC POPULATIONS
       ATOM           S       P       D      F      G      H      I    TOTAL
    1 N             3.56    3.45    0.02   0.00   0.00   0.00   0.00    7.02
    2 H             0.69    0.06    0.00   0.00   0.00   0.00   0.00    0.75
    3 H             0.55    0.05    0.00   0.00   0.00   0.00   0.00    0.60
    4 H             0.57    0.05    0.00   0.00   0.00   0.00   0.00    0.63

          ---------------------
          ELECTROSTATIC MOMENTS
          ---------------------

 POINT   1           X           Y           Z (BOHR)    CHARGE
                -0.000004    0.000003   -0.177185        1.00 (A.U.)
         DX          DY          DZ         /D/  (DEBYE)
    -0.927483    0.651873    2.132419    2.415030
 ...... END OF PROPERTY EVALUATION ......
 CPU     0: STEP CPU TIME=     0.01 TOTAL CPU TIME=         13.4 (      0.2 MIN)
 TOTAL WALL CLOCK TIME=         13.4 SECONDS, CPU UTILIZATION IS   100.00%

     -------------------------------------------------
     GMC-PT/GMC-QDPT or general MCSCF input parameters
     -------------------------------------------------
 # of frozen core orbs. =         0 ->         0
 # of doubly occ. orbs. =         1
 # of active      orbs. =         7
 # of virtual     orbs. =        21
 # of active electrons  =         7
 # of states in CI      =         3
 Highest state in CI    =         3
 kstate =  1 1 1
 avecoe =  0.333 0.333 0.333
 State symmetry           = A           
 Assigned symmetry number = 1

 <<<Act. MO sym.: 1111111

 <<<Division of 1-ext.:  0
 <<<Division of 2-ext.:  0

     ------------------------
     Orbital canonicalization
     ------------------------

 MOs are canonicalized for core, virtual, and invariant-active orbital spaces.
 This is a part of the GMC-QDPT calculation.
 SCHWARZ INEQUALITY OVERHEAD:       465 INTEGRALS, T=        0.00
 DIRECT TRANSFORMATION SKIPS AO INTEGRAL STORAGE ON DISK.

 Averaged energy =     -55.686538259

 State #    1  Energy =     -55.823436821  S =  0.500
 State #    2  Energy =     -55.712243677  S =  0.500
 State #    3  Energy =     -55.523934280  S =  0.500

 Orbital energies for filled orbital space
  -15.975980
 Orbital energies for active orbital space
   -1.474009  -0.970428  -0.787771  -0.705226   0.072774
    0.364507   0.242734
 Orbital energies for external orbital space
    0.135314   0.206254   0.262264   0.529538   0.594105
    0.720463   0.850413   1.040806   1.061884   1.181435
    1.291821   1.375092   1.576033   1.714842   1.812066
    2.012080   2.081923   2.241531   2.428677   2.638728
    3.053556

 Zero values mean non-canonical orbitals.
 ... done with orbital canonicalization ...
 CPU     0: STEP CPU TIME=     0.66 TOTAL CPU TIME=         14.1 (      0.2 MIN)
 TOTAL WALL CLOCK TIME=         14.1 SECONDS, CPU UTILIZATION IS    99.93%

     --------------------------------------------
     PARTIAL TWO ELECTRON INTEGRAL TRANSFORMATION
     --------------------------------------------

 NUMBER OF CORE MOLECULAR ORBITALS     =    0
 NUMBER OF OCCUPIED MOLECULAR ORBITALS =    8
 TOTAL NUMBER OF MOLECULAR ORBITALS    =   29
 TOTAL NUMBER OF ATOMIC ORBITALS       =   30
 THRESHOLD FOR KEEPING TRANSFORMED 2E- INTEGRALS = 1.000E-09
 AO INTEGRALS WILL BE CALCULATED IN DIRECT MODE...
 DIRECT TRANSFORMATION SKIPS AO INTEGRAL STORAGE ON DISK.
 SCHWARZ INEQUALITY OVERHEAD:       465 INTEGRALS, T=        0.00

 PLAN A: REQUIREMENTS FOR FULLY IN-MEMORY TRANSFORMATION:
 # OF WORDS AVAILABLE =            100000000
 # OF WORDS NEEDED    =               221798

 PARALLEL ONLY WORKS WITH THE SEGMENTED ALGORITHM.
 ADJUSTING MEMORY TO USE SEGMENTED ALGORITHM.


 PLAN B: REQUIREMENTS FOR THE SEGMENTED TRANSFORMATION:
       MINIMUM=         124148 WORDS FOR 1 MOLECULAR ORBITAL PER PASS
       MAXIMUM=         221798 WORDS FOR ALL MOLECULAR ORBITALS IN 1 PASS
              (          13950 EXTRA WORDS INCLUDES 1 EXTRA ORBITAL/PASS)
 THIS RUN USES=         221798 WORDS,
 DISTRIBUTING   1 PASSES EACH CONTAINING     8 ORBITALS OVER   1 PROCESSORS.

 CHOOSING SEGMENTED PARTIAL TRANSFORMATION...
 DIRECT TRANSFORMATION SKIPS AO INTEGRAL STORAGE ON DISK.
 PASS #   1 TOOK        0.04 SECONDS.
 TOTAL NUMBER OF TRANSFORMED 2E- INTEGRALS KEPT =        29226
 ... END OF INTEGRAL TRANSFORMATION ...
 CPU     0: STEP CPU TIME=     0.04 TOTAL CPU TIME=         14.1 (      0.2 MIN)
 TOTAL WALL CLOCK TIME=         14.1 SECONDS, CPU UTILIZATION IS    99.93%

     --------     ------------------------------------------
     GMC-QDPT     Program written by H.Nakano (Kyushu Univ.)
     --------     ------------------------------------------

 *** Reference space

 Reference type: ORMAS (= Occupation restricted multiple active space)
 # of orbitals          =  7
 # of minimum electrons =  7
 # of maximum electrons =  7
 State symmetry    =    1 (input)
 2*Sz              =    1 (input)
 Spin multiplicity =    2 (input)
 Dimension of reference space =      1225  (from      3432 walks)

 Dimension of reference space =      1225  (from      1225 walks)

 <<<Ionized spaces for Ref-CI:
      0:         1225 /   -1-0:         1960 /  0-1-0:         2891

 ***                    ***
 *** Reference space CI ***
 ***                    ***

 Converged after   40 iterations

 Reference wavefunctions:

 State #    1  Energy =     -55.823436821  S =  0.500

      Det      Coef    Occupancy (Ignoring core)
      ---      ----    --------- --------- -----
        1    0.966702  11110001110000
       36   -0.119239  11110001101000
      717    0.065962  11010011100001

 State #    2  Energy =     -55.712243677  S =  0.500

      Det      Coef    Occupancy (Ignoring core)
      ---      ----    --------- --------- -----
        1    0.124176  11110001110000
       36    0.969566  11110001101000
      142   -0.051203  11101001100100
      249    0.050997  10111001001100
      463    0.051429  10110101001010

 State #    3  Energy =     -55.523934280  S =  0.500

      Det      Coef    Occupancy (Ignoring core)
      ---      ----    --------- --------- -----
       71    0.970518  11110001011000
      177   -0.055848  11101001010100
      822   -0.068157  11010011001001

 Davidson method: CPU/Wall time =           0.52 /           0.52 sec.

 Oscillator strength (invalid if E(1)/=E(GS)):
 -----------------------------------------
   State                        f
 -----------------------------------------
     2     F(REF-CI)=        0.0025623325
     3     F(REF-CI)=        0.0061435196
 -----------------------------------------

 Dipole moment matrix elements, x, y, z, in A.U.

 Dimension of ionized spaces for PT:
 (N-2) space:         1715 /  (N-1) space:         2842 /  N space:         2891
 (N+1) space:         2842 /  (N+2) space:         1715

 <<<Ionized spaces for internal:
         0:         1225 /      -1-0:         1960 /     0-1-0:         2891
  -1-0-1-0:         2842 / 0-1-0-1-0:         3381

 Diagonal elements of averaged one-particle density matrix:
       2       3       4       5       6       7       8
  0.9922  0.9849  0.9832  0.9884  0.0229  0.0122  0.0161
  0.9866  0.6618  0.6561  0.6594  0.0157  0.0086  0.0119

 Orbital energies:
 -------- Doubly-occupied orbitals (highest several orbs.) -------
             1
 -1.597598D+01
 -------- Active orbitals ----------------------------------------
             2            3            4            5            6
 -1.474009D+00-9.704284D-01-7.877712D-01-7.052256D-01 7.277425D-02
             7            8
  3.645067D-01 2.427344D-01
 -------- External orbitals (lowest several orbs.) ---------------
             9           10           11           12           13
  1.353144D-01 2.062535D-01 2.622636D-01 5.295379D-01 5.941053D-01
            14           15           16           17           18
  7.204631D-01 8.504128D-01 1.040806D+00 1.061884D+00 1.181435D+00

 *** Quasi-degeneracy checking

 === Det (|Ci| > 1.0D-01 and dE < 5.0D-03)

 # of small denominators (single excitations)
 State       dEmin  dE < 5.0D-03  dE < 5.0D-04  dE < 5.0D-05  dE < 5.0D-06
 ----- ----------- ------------- ------------- ------------- -------------
     1    5.00D-03             0             0             0             0
     2    5.00D-03             0             0             0             0
     3    5.00D-03             0             0             0             0

 # of small denominators (double excitations)
 State       dEmin  dE < 5.0D-03  dE < 5.0D-04  dE < 5.0D-05  dE < 5.0D-06
 ----- ----------- ------------- ------------- ------------- -------------
     1    5.00D-03             0             0             0             0
     2    5.00D-03             0             0             0             0
     3    5.00D-03             0             0             0             0

 *** Zeroth-Order Setup (Granovsky's zeroth-order vectors)
 Zeroth-order effective Hamiltonian
  (= Sum_i e(i)*<I|a+(i)a(i)|J> ):
                   1            2            3
     1 -7.058696D+00
     2 -1.758824D-02-6.994260D+00
     3  1.054169D-03 9.184253D-03-6.799899D+00

 Zeroth-order vectors:
 State #    1
       MC st            1           2           3
       Coeff    9.685D-01   2.487D-01  -1.255D-02
 State #    2
       MC st            2           1           3
       Coeff   -9.674D-01   2.490D-01   4.532D-02
 State #    3
       MC st            3           2           1
       Coeff    9.989D-01   4.702D-02   8.720D-04

 *** GMC-QDPT computation

 (Integral reading:  CPU/Wall time =           0.00 /           0.00 sec.)

 One-external:
   0 -ionized terms: CPU/Wall time =           0.03 /           0.03 sec.
 (-1)-ionized terms: CPU/Wall time =           0.08 /           0.09 sec.
 (+1)-ionized terms: CPU/Wall time =           0.03 /           0.02 sec.
 (+1)-ionized terms: CPU/Wall time =           0.00 /           0.01 sec.
 (+2)-ionized terms: CPU/Wall time =           0.01 /           0.00 sec.

 Internal:
 # of macro loops for internal contribution =         1 (input)
 Loop:    1
 Dimension of internal CISD space     =         0  (after screening)
 Space construction: CPU/Wall time =           0.01 /           0.02 sec.
 Internal terms:     CPU/Wall time =           0.00 /           0.00 sec.

 Two-external:
   0 -ionized terms: CPU/Wall time =           0.06 /           0.06 sec.
 (-1)-ionized terms: CPU/Wall time =           1.01 /           1.00 sec.
 (-2)-ionized terms: CPU/Wall time =           0.16 /           0.17 sec.

 Total time:         CPU/Wall time =           1.39 /           1.40 sec.

 ***                  ***
 *** GMC-QDPT Results ***
 ***                  ***

 Diagonal elements of effective Hamiltonian:
 Heff(  1) =   -55.91697008
 Heff(  2) =   -55.82513696
 Heff(  3) =   -55.63552917

 Off-diagonal elements of effective Hamiltonian:
                   1            2
     2 -2.395095D-02
     3 -3.161570D-03 7.998541D-03

 ******** GMC-QDPT energies ********
 ----------------------------------------------------------------------------
   State                        1st order                           2nd order
 ----------------------------------------------------------------------------
     1     E(REF-CI)=      -55.8234368212   E(GMC-QDPT2)=      -55.9228460907
     2     E(REF-CI)=      -55.7122436770   E(GMC-QDPT2)=      -55.8196600160
     3     E(REF-CI)=      -55.5239342801   E(GMC-QDPT2)=      -55.6351301068
 ----------------------------------------------------------------------------

 Excitation energies (invalid if E(1)/=E(GS)):
 ----------------------------------------------------------------------------
   State                        1st order                           2nd order
 ----------------------------------------------------------------------------

     TZ Sorted GMC-PT ENERGIES:
         1      -55.9228460907
         2      -55.8196600160
         3      -55.6351301068
     2     E(REF-CI)=        3.0257211 eV   E(GMC-QDPT2)=        2.8078376 eV
     3     E(REF-CI)=        8.1498834 eV   E(GMC-QDPT2)=        7.8291547 eV
 ----------------------------------------------------------------------------

 Main characters of perturbed GMC-QDPT states:

 State #    1  Energy =     -55.922846091  S =  0.500

      Det      Coef    Occupancy (Ignoring core)
      ---      ----    --------- --------- -----
        1    0.968056  11110001110000
       36   -0.107959  11110001101000
      717    0.066084  11010011100001

 State #    2  Energy =     -55.819660016  S =  0.500

      Det      Coef    Occupancy (Ignoring core)
      ---      ----    --------- --------- -----
        1    0.112863  11110001110000
       36    0.970918  11110001101000
      142   -0.051609  11101001100100
      249    0.051025  10111001001100
      463    0.051483  10110101001010

 State #    3  Energy =     -55.635130107  S =  0.500

      Det      Coef    Occupancy (Ignoring core)
      ---      ----    --------- --------- -----
       71    0.970517  11110001011000
      177   -0.055815  11101001010100
      822   -0.068121  11010011001001

 <<<Max |V/de| = 2.879D-02  Thresh = 1.000D+00

 Oscillator strength (invalid if E(1)/=E(GS)):
 ----------------------------------------------------------------------------
   State                        1st order                           2nd order
 ----------------------------------------------------------------------------
     2     F(REF-CI)=        0.0025623325     F(GMC-PT2)=        0.0024629643
     3     F(REF-CI)=        0.0061435196     F(GMC-PT2)=        0.0060264932
 ----------------------------------------------------------------------------

 Dipole moment matrix elements, x, y, z, in A.U.
States    1    1       -0.3248926672        0.2050429390        0.6236282387
States    1    2        0.0315606030        0.0314764460       -0.1838937005
States    1    3       -0.1555757437       -0.0319476447       -0.0787051839
States    2    1        0.0315606030        0.0314764460       -0.1838937005
States    2    2       -0.1950616080        0.3757335301        0.3801897456
States    2    3       -0.0583244216       -0.0964017673        0.0000900510
States    3    1       -0.1555757437       -0.0319476447       -0.0787051839
States    3    2       -0.0583244216       -0.0964017673        0.0000900510
States    3    3       -0.5841781309        0.2203096478        0.2914113613

 Oscillator strength (valid only when positive): 
 ----------------------------------------------------------------------------
  States                        1st order                           2nd order
 ----------------------------------------------------------------------------
  1  1     F(REF-CI)=        0.0000000000     F(GMC-PT2)=        0.0000000000
  1  2     F(REF-CI)=       -0.0025623325     F(GMC-PT2)=       -0.0024629643
  1  3     F(REF-CI)=       -0.0061435196     F(GMC-PT2)=       -0.0060264932
  2  1     F(REF-CI)=        0.0025623325     F(GMC-PT2)=        0.0024629643
  2  2     F(REF-CI)=        0.0000000000     F(GMC-PT2)=        0.0000000000
  2  3     F(REF-CI)=       -0.0016340342     F(GMC-PT2)=       -0.0015617439
  3  1     F(REF-CI)=        0.0061435196     F(GMC-PT2)=        0.0060264932
  3  2     F(REF-CI)=        0.0016340342     F(GMC-PT2)=        0.0015617439
  3  3     F(REF-CI)=        0.0000000000     F(GMC-PT2)=        0.0000000000
 CPU     0: STEP CPU TIME=     1.99 TOTAL CPU TIME=         16.1 (      0.3 MIN)
 TOTAL WALL CLOCK TIME=         16.1 SECONDS, CPU UTILIZATION IS    99.94%

     !!! DIABATIZATION FOR REF CI STATES !!!

 *******************************************************
          $DMO GROUP FOUND IN THE INPUT.
        DIABATIZATION OF ADIABATIC STATES BEGINS.
     PROGRAMMED BY TAO ZENG (CARLETON UNIVERSITY).
               Email: toby.zeng@carleton.ca
     See T. Zeng, J. Chem. Phys. 2017, 146, 144103
 *******************************************************

 *************************************************************************
     STEP 1: TRANSFORMATION OF ADIABATIC STATES TO THE DMO REPRESENTATION
         See Atchity and Ruedenberg, J. Chem. Phys. 1999, 111, 2910
 *************************************************************************

Read in Diabatic Molecualr Orbitals:

                      1          2          3          4          5

    1  N  1  S    0.008609   0.000000   0.000000  -0.013219   0.279491
    2  N  1  S    0.442914  -0.000000   0.000000  -0.184329   0.867803
    3  N  1  S    0.276913   0.000000  -0.000000  -0.288315   0.144236
    4  N  1  X   -0.000000   0.493155  -0.024636  -0.000000  -0.000000
    5  N  1  Y    0.000000   0.024636   0.493155  -0.000000   0.000000
    6  N  1  Z    0.090197   0.000000   0.000000   0.593421   0.705309
    7  N  1  X   -0.000000   0.210628  -0.010522   0.000000   0.000000
    8  N  1  Y    0.000000   0.010522   0.210628  -0.000000  -0.000000
    9  N  1  Z   -0.004381   0.000000   0.000000   0.381592  -0.106092
   10  N  1 XX   -0.000457   0.010719  -0.000535  -0.012387   0.006153
   11  N  1 YY   -0.000457  -0.010719   0.000535  -0.012387   0.006153
   12  N  1 ZZ    0.000914  -0.000000   0.000000   0.024773  -0.012306
   13  N  1 XY    0.000000  -0.000618  -0.012377  -0.000000   0.000000
   14  N  1 XZ   -0.000000   0.026529  -0.001325  -0.000000   0.000000
   15  N  1 YZ    0.000000   0.001325   0.026529  -0.000000   0.000000
   16  H  2  S    0.194462  -0.176074   0.343485   0.112865  -0.523343
   17  H  2  S    0.003574  -0.023812   0.046452   0.024014  -0.054445
   18  H  2  X    0.018760   0.009101   0.022834   0.009336  -0.039151
   19  H  2  Y   -0.032493   0.022287  -0.020044  -0.016171   0.067811
   20  H  2  Z   -0.009251   0.008464  -0.016511   0.018769  -0.010566
   21  H  3  S    0.194462  -0.209430  -0.324227   0.112865  -0.523343
   22  H  3  S    0.003574  -0.028322  -0.043847   0.024014  -0.054445
   23  H  3  X    0.018760   0.006781  -0.023627   0.009336  -0.039151
   24  H  3  Y    0.032493  -0.024174  -0.017723   0.016171  -0.067811
   25  H  3  Z   -0.009251   0.010067   0.015585   0.018769  -0.010566
   26  H  4  S    0.194462   0.385503  -0.019258   0.112865  -0.523343
   27  H  4  S    0.003574   0.052134  -0.002604   0.024014  -0.054445
   28  H  4  X   -0.037519  -0.032295   0.001613  -0.018672   0.078302
   29  H  4  Y    0.000000   0.001067   0.021353  -0.000000   0.000000
   30  H  4  Z   -0.009251  -0.018530   0.000926   0.018769  -0.010566

                      6          7

    1  N  1  S    0.000000  -0.000000
    2  N  1  S    0.000000  -0.000000
    3  N  1  S   -0.000000   0.000000
    4  N  1  X   -0.930415  -0.002083
    5  N  1  Y   -0.002083   0.930415
    6  N  1  Z   -0.000000   0.000000
    7  N  1  X   -0.046866  -0.000105
    8  N  1  Y   -0.000105   0.046866
    9  N  1  Z   -0.000000   0.000000
   10  N  1 XX    0.001538   0.000003
   11  N  1 YY   -0.001538  -0.000003
   12  N  1 ZZ   -0.000000   0.000000
   13  N  1 XY   -0.000004   0.001776
   14  N  1 XZ    0.039985   0.000090
   15  N  1 YZ    0.000090  -0.039985
   16  H  2  S   -0.362630  -0.631354
   17  H  2  S   -0.065964  -0.114846
   18  H  2  X    0.002763  -0.037520
   19  H  2  Y    0.037435   0.040736
   20  H  2  Z    0.001882   0.003276
   21  H  3  S   -0.365454   0.629724
   22  H  3  S   -0.066477   0.114549
   23  H  3  X    0.002595   0.037532
   24  H  3  Y   -0.037617   0.040567
   25  H  3  Z    0.001896  -0.003268
   26  H  4  S    0.728084   0.001630
   27  H  4  S    0.132441   0.000297
   28  H  4  X   -0.062317  -0.000140
   29  H  4  Y    0.000055  -0.024345
   30  H  4  Z   -0.003778  -0.000008

NUMBER OF SUB ACTIVE SPACES:   1
ROTATE ACTIVE MOS TO DMOS IN EACH SUB-SPACE

SPACE  1:

OVERLAP BETWEEN ORTHONORMAL AND PRE-ORTHONORMAL REF. DMOS

             1           2           3           4           5

    1    0.9650125  -0.0209473   0.0363224  -0.0117506   0.0059968
    2   -0.0209473   1.0292473   0.0251738  -0.0369021   0.0698532
    3    0.0363224   0.0251738   0.8644259   0.0374822  -0.0396067
    4   -0.0117506  -0.0369021   0.0374822   0.9926071  -0.0154628
    5    0.0059968   0.0698532  -0.0396067  -0.0154628   1.1795172
    6   -0.0005919   0.0545211   0.0386227  -0.0532949   0.0416589
    7   -0.0044522  -0.0065752   0.0875006  -0.0276885  -0.0646098

             6           7

    1   -0.0005919  -0.0044522
    2    0.0545211  -0.0065752
    3    0.0386227   0.0875006
    4   -0.0532949  -0.0276885
    5    0.0416589  -0.0646098
    6    1.0748311   0.0146048
    7    0.0146048   1.0813129
REFERENCE DMOS AFTER ORTHONORMALIZATION:

                      1          2          3          4          5

    1  N  1  S    0.006607  -0.016151   0.010702  -0.010662   0.239157
    2  N  1  S    0.450667  -0.045453   0.021220  -0.172172   0.738044
    3  N  1  S    0.282187  -0.011801   0.007136  -0.286952   0.118701
    4  N  1  X    0.010752   0.525860  -0.004426  -0.027768   0.000571
    5  N  1  Y   -0.014730   0.014602   0.491368   0.003982   0.062144
    6  N  1  Z    0.097277  -0.017323  -0.007802   0.609985   0.608871
    7  N  1  X    0.005296   0.208928  -0.017136   0.005544  -0.010881
    8  N  1  Y   -0.009116   0.003828   0.242762  -0.008855   0.009538
    9  N  1  Z    0.002030   0.019227  -0.023022   0.386057  -0.087245
   10  N  1 XX   -0.000431   0.009665  -0.000167  -0.012038   0.004479
   11  N  1 YY   -0.000986  -0.011249   0.001919  -0.012992   0.005835
   12  N  1 ZZ    0.001418   0.001584  -0.001752   0.025030  -0.010314
   13  N  1 XY    0.000572  -0.000194  -0.014691   0.000657  -0.000341
   14  N  1 XZ    0.000759   0.024264  -0.004154   0.002977  -0.002827
   15  N  1 YZ   -0.001518   0.000167   0.034883  -0.002497  -0.001025
   16  H  2  S    0.181915  -0.133568   0.450098   0.051997  -0.444804
   17  H  2  S    0.000733  -0.018659   0.065589   0.013989  -0.046802
   18  H  2  X    0.018786   0.010795   0.027142   0.007556  -0.035154
   19  H  2  Y   -0.032667   0.015924  -0.024871  -0.011385   0.056934
   20  H  2  Z   -0.008254   0.009809  -0.020978   0.020123  -0.009801
   21  H  3  S    0.222175  -0.136014  -0.451786   0.122522  -0.406653
   22  H  3  S    0.006652  -0.018585  -0.061902   0.025299  -0.038787
   23  H  3  X    0.021486   0.010537  -0.034421   0.012080  -0.033115
   24  H  3  Y    0.035024  -0.015994  -0.027077   0.015674  -0.054292
   25  H  3  Z   -0.009754   0.010298   0.017299   0.018361  -0.009011
   26  H  4  S    0.219034   0.384228  -0.100985   0.163093  -0.494346
   27  H  4  S    0.006092   0.049290  -0.013916   0.032430  -0.053692
   28  H  4  X   -0.040806  -0.034904   0.011251  -0.023077   0.071041
   29  H  4  Y   -0.001159   0.000188   0.027342  -0.001774  -0.000445
   30  H  4  Z   -0.009727  -0.016988   0.000937   0.017922  -0.007594

                      6          7

    1  N  1  S   -0.009539   0.013209
    2  N  1  S   -0.035895   0.040037
    3  N  1  S   -0.018338   0.000505
    4  N  1  X   -0.893724   0.013067
    5  N  1  Y   -0.033765   0.824987
    6  N  1  Z    0.007142   0.052830
    7  N  1  X   -0.052923   0.002788
    8  N  1  Y   -0.010157   0.024163
    9  N  1  Z    0.022291   0.006360
   10  N  1 XX    0.000175   0.000031
   11  N  1 YY   -0.001797  -0.000191
   12  N  1 ZZ    0.001622   0.000160
   13  N  1 XY    0.000542   0.002821
   14  N  1 XZ    0.036378  -0.000014
   15  N  1 YZ   -0.000721  -0.039922
   16  H  2  S   -0.318149  -0.641312
   17  H  2  S   -0.058734  -0.113272
   18  H  2  X    0.003321  -0.038703
   19  H  2  Y    0.031550   0.042331
   20  H  2  Z    0.003317   0.004638
   21  H  3  S   -0.303097   0.601949
   22  H  3  S   -0.057415   0.109964
   23  H  3  X    0.004523   0.035917
   24  H  3  Y   -0.030820   0.037328
   25  H  3  Z    0.001936  -0.004494
   26  H  4  S    0.689196  -0.021752
   27  H  4  S    0.124944  -0.002340
   28  H  4  X   -0.060574   0.003052
   29  H  4  Y   -0.000676  -0.024793
   30  H  4  Z   -0.001507  -0.000201

 -------------------------------------------
       MAXIMIZING MORMO OVERLAP TERM        
 -------------------------------------------
   SWEEP    VALUE       PROGRESS
     0     4.71040
     1     6.83373     2.12332663
     2     6.92983     0.09609842
     3     6.92992     0.00009241
     4     6.92992     0.00000000
     5     6.92992    -0.00000000
     6     6.92992     0.00000000
 THE ROTATION IS DONE
FLIPPING SIGN FOR ORBITAL   7
ACTIVE ORBITALS AFTER MORMO:

                      1          2          3          4          5

    1  N  1  S    0.003989  -0.019930   0.026398  -0.012683   0.174838
    2  N  1  S    0.416095  -0.042709   0.070279  -0.192684   0.659532
    3  N  1  S    0.346999   0.012946  -0.080684  -0.264456   0.217983
    4  N  1  X    0.006908   0.509808   0.003320  -0.039125   0.021276
    5  N  1  Y    0.007983   0.029217   0.416818   0.033773   0.039127
    6  N  1  Z    0.079994  -0.039656   0.022389   0.605653   0.593935
    7  N  1  X    0.008220   0.200126  -0.032770   0.049496  -0.049998
    8  N  1  Y   -0.031227  -0.013755   0.341461  -0.049652   0.035136
    9  N  1  Z    0.035204   0.057003  -0.064841   0.387489  -0.062442
   10  N  1 XX    0.006804   0.006972  -0.017712  -0.009395  -0.038092
   11  N  1 YY   -0.006246  -0.007358   0.016606  -0.011428   0.027849
   12  N  1 ZZ   -0.000559   0.000385   0.001106   0.020823   0.010242
   13  N  1 XY    0.005732   0.010367  -0.029416   0.007947  -0.030277
   14  N  1 XZ   -0.003518   0.012626  -0.001221   0.001987   0.031797
   15  N  1 YZ   -0.000193   0.002908   0.021491   0.004669  -0.033318
   16  H  2  S    0.179489  -0.146626   0.379968   0.078364  -0.468954
   17  H  2  S   -0.005272  -0.019962   0.158384   0.018733  -0.073954
   18  H  2  X    0.020539   0.004744   0.023724   0.012155  -0.009774
   19  H  2  Y   -0.024076   0.013933  -0.001272  -0.017322   0.046577
   20  H  2  Z   -0.014808   0.017998  -0.029212   0.016213  -0.007014
   21  H  3  S    0.187587  -0.168854  -0.335036   0.102763  -0.392198
   22  H  3  S    0.016487  -0.014992  -0.152040   0.038710  -0.061377
   23  H  3  X    0.026747  -0.017243  -0.039234   0.012547  -0.031616
   24  H  3  Y    0.011696  -0.017841   0.007429   0.002053  -0.028984
   25  H  3  Z   -0.003824   0.014076   0.004270   0.017718  -0.024345
   26  H  4  S    0.189367   0.373816  -0.054112   0.124913  -0.473673
   27  H  4  S    0.007477   0.054670  -0.034549   0.040670  -0.074794
   28  H  4  X   -0.031559  -0.037775  -0.010400  -0.009809   0.048967
   29  H  4  Y   -0.011846  -0.021257   0.021798  -0.006203   0.020275
   30  H  4  Z   -0.001764  -0.006249  -0.002128   0.021621  -0.014964

                      6          7

    1  N  1  S   -0.064780  -0.013929
    2  N  1  S   -0.144203  -0.044505
    3  N  1  S    0.133313   0.101067
    4  N  1  X   -0.863928   0.030531
    5  N  1  Y   -0.037099   0.845396
    6  N  1  Z    0.013349   0.087500
    7  N  1  X   -0.110265  -0.020565
    8  N  1  Y   -0.001461  -0.001663
    9  N  1  Z    0.037974  -0.031682
   10  N  1 XX   -0.009380   0.037514
   11  N  1 YY    0.027698  -0.036886
   12  N  1 ZZ   -0.018318  -0.000628
   13  N  1 XY    0.049139   0.041951
   14  N  1 XZ    0.042733  -0.006425
   15  N  1 YZ    0.021410  -0.022117
   16  H  2  S   -0.345012  -0.567125
   17  H  2  S   -0.071105  -0.225240
   18  H  2  X    0.032889  -0.032229
   19  H  2  Y    0.037533   0.005672
   20  H  2  Z    0.000256   0.018407
   21  H  3  S   -0.334931   0.499973
   22  H  3  S   -0.080242   0.207473
   23  H  3  X   -0.013160   0.051491
   24  H  3  Y   -0.038613  -0.001712
   25  H  3  Z   -0.024568  -0.006995
   26  H  4  S    0.643064  -0.033211
   27  H  4  S    0.151873  -0.000608
   28  H  4  X   -0.056724   0.012597
   29  H  4  Y   -0.019189  -0.009076
   30  H  4  Z    0.022064  -0.018026

Actually Used Diabatic Molecualr Orbitals:

                      1          2          3          4          5

    1  N  1  S    0.003989  -0.019930   0.026398  -0.012683   0.174838
    2  N  1  S    0.416095  -0.042709   0.070279  -0.192684   0.659532
    3  N  1  S    0.346999   0.012946  -0.080684  -0.264456   0.217983
    4  N  1  X    0.006908   0.509808   0.003320  -0.039125   0.021276
    5  N  1  Y    0.007983   0.029217   0.416818   0.033773   0.039127
    6  N  1  Z    0.079994  -0.039656   0.022389   0.605653   0.593935
[...]
 STATE #  1 &  3'S GMC-PT-LEVEL COUPLING  =      -0.032425162      -0.882333599
 STATE #  2 &  3'S GMC-PT-LEVEL COUPLING  =       0.039776247       1.082366800

 ---------------------------------------
     - ROTATION TO DIABATIC STATES -    
 ---------------------------------------
 ROWS=ADIABATIC, COLUMNS=DIABATIC STATES

             1           2           3

    1   -0.8800122   0.2290674  -0.4160610
    2    0.4420947   0.0749075  -0.8938351
    3    0.1735824   0.9705241   0.1671890

 ---------------------------------------
          - DIABATIC STATES -           
 ---------------------------------------

 State #    1  Energy =     -55.894009482

      Det      Coef        Coefp    Occupancy (Ignoring core)
      ---      ----        ----    --------- --------- -----
        1    0.899631   -0.899631  222+000
       17    0.199797    0.199797  22-+00+
      701   -0.166158   -0.166158  22++00-
        4    0.115269   -0.115269  2-2++00
      176   -0.111149    0.111149  2+2+-00
        3   -0.104599   -0.104599  22-++00
      141    0.100548    0.100548  22++-00
        6   -0.084158    0.084158  22200+0
       16   -0.074111    0.074111  222000+
        7    0.067569    0.067569  22-+0+0
      351   -0.067096   -0.067096  22++0-0
      393   -0.063586   -0.063586  202+020
      717   -0.055607   -0.055607  220+002
      402    0.050017   -0.050017  2+-+0-+
      708    0.044274   -0.044274  2-++0+-
      192    0.043071   -0.043071  2+-+-0+
      704    0.041482   -0.041482  2-+++0-
        5    0.041349    0.041349  -22++00
      215   -0.038504   -0.038504  022+200
      390    0.036772   -0.036772  -+2++-0
      218    0.035411   -0.035411  +-2+-+0
       23   -0.033686   -0.033686  2--++0+
       51   -0.033639    0.033639  22+-00+
      386   -0.032176    0.032176  2+2+0-0
      706    0.031895    0.031895  22+00+-
     1051   -0.031568   -0.031568  2+++0--
      212    0.031518    0.031518  +220200
      227   -0.030424   -0.030424  +2-+-0+
      705   -0.030089   -0.030089  -2+++0-
      122    0.028805    0.028805  +2-200+
      702    0.028696    0.028696  22+0+0-
      911   -0.028695   -0.028695  2+++-0-
       29   -0.027348   -0.027348  2--+0++
       19   -0.027049   -0.027049  -22+00+
       20   -0.027025   -0.027025  22-0+0+
      211   -0.025834   -0.025834  +22+-00
      773    0.024708   -0.024708  +2-++0-
      424   -0.024653   -0.024653  +-2++-0
       76    0.024334    0.024334  2+2-0+0
      387   -0.023970    0.023970  2+20+-0
      179   -0.023461   -0.023461  202+200
      184   -0.022709   -0.022709  -+2+-+0
      159    0.022496   -0.022496  -2++-0+
       26   -0.022105   -0.022105  22-00++
      113   -0.021908    0.021908  +-220+0
      716    0.021385    0.021385  22+0002
      753   -0.021143   -0.021143  202+002

 State #    2  Energy =     -55.651262522

      Det      Coef        Coefp    Occupancy (Ignoring core)
      ---      ----        ----    --------- --------- -----
       71   -0.895493    0.895493  2+22000
      806   -0.163724   -0.163724  2++200-
       87    0.152339   -0.152339  2+-200+
       73   -0.112820    0.112820  2+-2+00
      246    0.105954    0.105954  2++2-00
      386    0.088932   -0.088932  2+2+0-0
       76   -0.086938   -0.086938  2+2-0+0
      736    0.084717   -0.084717  2+2+00-
       77    0.084128   -0.084128  2+-20+0
       74   -0.083558    0.083558  2022+00
       86   -0.079780   -0.079780  2+2-00+
      456   -0.077863   -0.077863  2++20-0
       78   -0.069638    0.069638  20220+0
      822    0.064634   -0.064634  2+02002
      106   -0.061570   -0.061570  +222000
      813    0.055355   -0.055355  20+20+-
      122    0.052288    0.052288  +2-200+
       38   -0.050669    0.050669  2202+00
      316    0.043694    0.043694  ++22-00
       99   -0.040553    0.040553  20-20++
      320    0.040037    0.040037  0+22200
       36    0.039018    0.039018  22+2000
       90    0.038394    0.038394  2+--+0+
      807   -0.038032    0.038032  2++-+0-
      317    0.037393   -0.037393  ++2-200
      332   -0.035691    0.035691  ++-2-0+
      177    0.035492   -0.035492  2+20200
      180   -0.035336    0.035336  -+2+200
      192   -0.035230    0.035230  2+-+-0+
      810   -0.034912   -0.034912  -++2+0-
      809    0.034747   -0.034747  20+2+0-
       51    0.034630   -0.034630  22+-00+
      111    0.034501   -0.034501  +22-0+0
      323   -0.033983    0.033983  +022-+0
       72   -0.033758   -0.033758  2+2-+00
      811   -0.032118    0.032118  2++-0+-
      911    0.031133    0.031133  2+++-0-
      402   -0.030357    0.030357  2+-+0-+
        6    0.029140   -0.029140  22200+0
      841   -0.029019    0.029019  +2+200-
      108   -0.027436   -0.027436  +2-2+00
      752    0.027256    0.027256  2+-+002
      264    0.027148   -0.027148  -++2-0+
       52    0.027038   -0.027038  220200+
      248    0.026917   -0.026917  2+02200
      821   -0.026110    0.026110  2++-002
      876   -0.025428   -0.025428  ++2200-
      878    0.024342    0.024342  ++-2+0-
        4    0.023453   -0.023453  2-2++00
      109   -0.023379    0.023379  +-22+00
      183   -0.023337    0.023337  202+-+0
       54   -0.023269    0.023269  -2+200+
       17   -0.022540   -0.022540  22-+00+
      112    0.021801    0.021801  +2-20+0
       93   -0.020972    0.020972  20-2+0+
       75   -0.020316   -0.020316  -+22+00

 State #    3  Energy =     -55.832364210

      Det      Coef        Coefp    Occupancy (Ignoring core)
      ---      ----        ----    --------- --------- -----
       36   -0.898916   -0.898916  22+2000
       52   -0.169008    0.169008  220200+
       39   -0.149013   -0.149013  2-+2+00
      246    0.133202    0.133202  2++2-00
       38    0.117431   -0.117431  2202+00
       41   -0.115538    0.115538  22+-0+0
      351    0.108812    0.108812  22++0-0
       51   -0.085617    0.085617  22+-00+
      701    0.081496    0.081496  22++00-
      106    0.072172    0.072172  +222000
      463    0.060281   -0.060281  20+2020
       42   -0.059848    0.059848  22020+0
      472   -0.056030   -0.056030  2+020-+
      456    0.047622    0.047622  2++20-0
       71   -0.047494    0.047494  2+22000
      262   -0.045192   -0.045192  2+02-0+
       43   -0.043076   -0.043076  2-+20+0
       40   -0.042744    0.042744  -2+2+00
       55   -0.042457   -0.042457  220-+0+
       64    0.042062   -0.042062  2-020++
      367    0.040422   -0.040422  220+0-+
      157    0.039019   -0.039019  220+-0+
      285    0.038460   -0.038460  02+2200
       58    0.038071   -0.038071  2-02+0+
      460   -0.037349   -0.037349  -++2+-0
      288   -0.035968   -0.035968  +-+2-+0
      142    0.035318    0.035318  22+0200
      145   -0.035282   -0.035282  -2++200
      297    0.033808   -0.033808  +202-0+
      282    0.033686    0.033686  +2+-200
      123    0.031378   -0.031378  +-2200+
       53    0.030094    0.030094  2-+200+
      806   -0.030094   -0.030094  2++200-
       54    0.029828   -0.029828  -2+200+
       61   -0.028874   -0.028874  220-0++
      717   -0.027863   -0.027863  220+002
       37   -0.027417    0.027417  22+-+00
      108    0.026435    0.026435  +2-2+00
      494    0.024683   -0.024683  +-+2+-0
      457   -0.024565    0.024565  2++-+-0
      122   -0.024239   -0.024239  +2-200+
      843   -0.023899   -0.023899  +202+0-
       46    0.023666   -0.023666  2-+-++0
      148   -0.023447   -0.023447  2-++-+0
      109   -0.022656    0.022656  +-22+00
       45   -0.022186   -0.022186  220-++0
      141    0.022169    0.022169  22++-00
      254    0.022168   -0.022168  -++2-+0
      121   -0.020722    0.020722  +22-00+
      561    0.020275    0.020275  2+++--0
       88    0.020028   -0.020028  202200+

 ---------------------------------------
      - DIABATIC STATES IN CMO -        
 ---------------------------------------

 State #    1  Energy =     -55.894009482

      Det      Coef        Coefp    Occupancy (Ignoring core)
      ---      ----        ----    --------- --------- -----
        1    0.804411   -0.804411  222+000
       36    0.519268    0.519268  22+2000
       71   -0.171968    0.171968  2+22000
      717   -0.053771   -0.053771  220+002
      142   -0.051924   -0.051924  22+0200
      143   -0.045598   -0.045598  220+200
      393   -0.043750   -0.043750  202+020
      106   -0.038665   -0.038665  +222000
      179   -0.034972   -0.034972  202+200
      145    0.033375    0.033375  -2++200
      157    0.032822   -0.032822  220+-0+
      463   -0.031039    0.031039  20+2020
      718    0.030853   -0.030853  2-++002
        8   -0.029335    0.029335  2-2+0+0
      752   -0.029142   -0.029142  2+-+002
       17   -0.029131   -0.029131  22-+00+
      212    0.028814    0.028814  +220200
        2    0.028212   -0.028212  2220+00
      249   -0.028098    0.028098  20+2200
      753   -0.026450   -0.026450  202+002
       18    0.025943   -0.025943  2-2+00+
      148    0.025505    0.025505  2-++-+0
      122   -0.025210   -0.025210  +2-200+
      215   -0.024044   -0.024044  022+200
      123    0.023890   -0.023890  +-2200+
      144   -0.023447    0.023447  2-++200
      387   -0.022513    0.022513  2+20+-0
       38   -0.022276    0.022276  2202+00
      158   -0.022246   -0.022246  2-++-0+
      703   -0.021628   -0.021628  220++0-
      218    0.021579   -0.021579  +-2+-+0
      789   -0.021431   -0.021431  022+002
      390    0.021377   -0.021377  -+2++-0
        7   -0.021322   -0.021322  22-+0+0
       51    0.021309   -0.021309  22+-00+
      719   -0.020450   -0.020450  -2++002

 State #    2  Energy =     -55.651262522

      Det      Coef        Coefp    Occupancy (Ignoring core)
      ---      ----        ----    --------- --------- -----
       71   -0.946174    0.946174  2+22000
        1   -0.216754    0.216754  222+000
      822    0.064301   -0.064301  2+02002
      177    0.057154   -0.057154  2+20200
      122   -0.045645   -0.045645  +2-200+
       37   -0.042320    0.042320  22+-+00
        2   -0.041793    0.041793  2220+00
      248    0.040450   -0.040450  2+02200
        4    0.039544   -0.039544  2-2++00
      109   -0.039400    0.039400  +-22+00
        3    0.038384    0.038384  22-++00
      180   -0.037473    0.037473  -+2+200
      317    0.034380   -0.034380  ++2-200
       72   -0.034257   -0.034257  2+2-+00
      823    0.034250   -0.034250  20+2002
      178   -0.031747   -0.031747  2+-+200
      107    0.030875   -0.030875  +22-+00
      320    0.030096    0.030096  0+22200
      894    0.027560    0.027560  0+22002
      247    0.027352   -0.027352  2++-200
      808    0.026518   -0.026518  2+02+0-
      262   -0.026370   -0.026370  2+02-0+
      108   -0.026033   -0.026033  +2-2+00
       77    0.025624   -0.025624  2+-20+0
       54    0.025528   -0.025528  -2+200+
      462    0.024650   -0.024650  2+02020
       99    0.024569   -0.024569  20-20++
      179    0.024260    0.024260  202+200
       75    0.023845    0.023845  -+22+00
      111    0.023744   -0.023744  +22-0+0
      183   -0.023465    0.023465  202+-+0
       74    0.022798   -0.022798  2022+00
      807    0.022777   -0.022777  2++-+0-
       78   -0.022736    0.022736  20220+0
      911   -0.022101   -0.022101  2+++-0-
      192    0.021829   -0.021829  2+-+-0+
      463   -0.021635    0.021635  20+2020
      323   -0.020553    0.020553  +022-+0
       36    0.020182    0.020182  22+2000
      841    0.020117   -0.020117  +2+200-
      534    0.020009    0.020009  0+22020

 State #    3  Energy =     -55.832364210

      Det      Coef        Coefp    Occupancy (Ignoring core)
      ---      ----        ----    --------- --------- -----
       36   -0.827715   -0.827715  22+2000
        1    0.505968   -0.505968  222+000
       71   -0.133869    0.133869  2+22000
      249    0.041619   -0.041619  20+2200
      822    0.040897   -0.040897  2+02002
      463    0.040433   -0.040433  20+2020
      717   -0.036600   -0.036600  220+002
      142    0.032786    0.032786  22+0200
      823    0.032569   -0.032569  20+2002
      282    0.029048    0.029048  +2+-200
        2    0.028638   -0.028638  2220+00
      109   -0.028441    0.028441  +-22+00
      108    0.028094    0.028094  +2-2+00
      393   -0.026700   -0.026700  202+020
      179   -0.025329   -0.025329  202+200
       38    0.024693   -0.024693  2202+00
      859    0.024632   -0.024632  02+2002
      285    0.024125   -0.024125  02+2200
       58   -0.023034    0.023034  2-02+0+
      457   -0.022868    0.022868  2++-+-0
       64   -0.022302    0.022302  2-020++
      123   -0.021451    0.021451  +-2200+
       72   -0.021308   -0.021308  2+2-+00
       42    0.021113   -0.021113  22020+0
      288   -0.020716   -0.020716  +-+2-+0
      111    0.020384   -0.020384  +22-0+0
      752   -0.020161   -0.020161  2+-+002

 ---------------------------------------
    -DIABATIC STATES IN PROTOTYPES-     
 ---------------------------------------

     STATE:    1
 Group Ref#    Coefficients
     1    1    0.920546
     2    2    0.003496
     3    3    0.011344

WEIGHT OF LISTED PROTOTYPES:   84.75%

     STATE:    2
 Group Ref#    Coefficients
     1    1    0.003546
     2    2    0.907674
     3    3   -0.000925

WEIGHT OF LISTED PROTOTYPES:   82.39%

     STATE:    3
 Group Ref#    Coefficients
     1    1    0.011374
     2    2   -0.000915
     3    3    0.918145

WEIGHT OF LISTED PROTOTYPES:   84.31%

     DIRECT MAX. DIABATIZATION FINISHED    
 CPU     0: STEP CPU TIME=     0.25 TOTAL CPU TIME=         16.4 (      0.3 MIN)
 TOTAL WALL CLOCK TIME=         16.4 SECONDS, CPU UTILIZATION IS    99.94%

DIABATS FOR SPIN-ORBIT CALCULATION ARE READY

TRANSITION DIPOLES BETWEEN ADIABATS (in A.U.):

STATE PAIR      X         Y         Z
    1    1 -0.324893  0.205043  0.623628
    2    1  0.031561  0.031476 -0.183894
    2    2 -0.195062  0.375734  0.380190
    3    1 -0.155576 -0.031948 -0.078705
    3    2 -0.058324 -0.096402  0.000090
    3    3 -0.584178  0.220310  0.291411


TRANSITION DIPOLES BETWEEN DIABATS (in A.U.):

STATE PAIR      X         Y         Z
    1    1 -0.293306  0.209335  0.733184
    2    1  0.062629 -0.007263 -0.006411
    2    2 -0.644963  0.193241  0.268050
    3    1 -0.000942 -0.033193 -0.007017
    3    2  0.048520  0.077722  0.034467
    3    3 -0.165863  0.398510  0.293995

TRANSITION DIPOLES BETWEEN DIRECT MAX. DIABATS (in A.U.):

STATE PAIR      X         Y         Z
    1    1 -0.293309  0.209337  0.733185
    2    1  0.062638 -0.007263 -0.006399
    2    2 -0.644961  0.193239  0.268049
    3    1 -0.000945 -0.033198 -0.007011
    3    2  0.048518  0.077720  0.034467
    3    3 -0.165863  0.398510  0.293995
 No $TRANST Group Found.
 Quit without doing spin-orbit coupling
 ..... DONE WITH MP2 ENERGY .....
 CPU     0: STEP CPU TIME=     0.00 TOTAL CPU TIME=         16.4 (      0.3 MIN)
 TOTAL WALL CLOCK TIME=         16.4 SECONDS, CPU UTILIZATION IS    99.94%
            100000000  WORDS OF DYNAMIC MEMORY USED
 EXECUTION OF GAMESS TERMINATED NORMALLY Wed Nov 16 19:58:10 2022
 DDI: 715512 bytes (0.7 MB / 0 MWords) used by master data server.

 ----------------------------------------
 CPU timing information for all processes
 ========================================
 0: 15.989 + 0.372 = 16.361
 ----------------------------------------
Note: The following floating-point exceptions are signalling: IEEE_DENORMAL
 ddikick.x: exited gracefully.
unset echo
----- accounting info -----
Files used on the master node io002 were:
-rw-r--r-- 1 bsonghao nooijen   20706 Nov 16 19:57 /scratch/bsonghao/nh3_diabatization_2d_at_mode_7_8_dist0.5_-0.7.F05
-rw-r--r-- 1 bsonghao nooijen  363520 Nov 16 19:58 /scratch/bsonghao/nh3_diabatization_2d_at_mode_7_8_dist0.5_-0.7.F09
-rw-r--r-- 1 bsonghao nooijen 1995920 Nov 16 19:58 /scratch/bsonghao/nh3_diabatization_2d_at_mode_7_8_dist0.5_-0.7.F10
-rw-r--r-- 1 bsonghao nooijen  131264 Nov 16 19:58 /scratch/bsonghao/nh3_diabatization_2d_at_mode_7_8_dist0.5_-0.7.F13
-rw-r--r-- 1 bsonghao nooijen  180312 Nov 16 19:58 /scratch/bsonghao/nh3_diabatization_2d_at_mode_7_8_dist0.5_-0.7.F15
-rw-r--r-- 1 bsonghao nooijen       0 Nov 16 19:57 /scratch/bsonghao/nh3_diabatization_2d_at_mode_7_8_dist0.5_-0.7.F16
-rw-r--r-- 1 bsonghao nooijen    9808 Nov 16 19:58 /scratch/bsonghao/nh3_diabatization_2d_at_mode_7_8_dist0.5_-0.7.F70
-rw-r--r-- 1 bsonghao nooijen    9808 Nov 16 19:58 /scratch/bsonghao/nh3_diabatization_2d_at_mode_7_8_dist0.5_-0.7.F71
-rw-r--r-- 1 bsonghao nooijen   19608 Nov 16 19:58 /scratch/bsonghao/nh3_diabatization_2d_at_mode_7_8_dist0.5_-0.7.F72
-rw-r--r-- 1 bsonghao nooijen   19608 Nov 16 19:58 /scratch/bsonghao/nh3_diabatization_2d_at_mode_7_8_dist0.5_-0.7.F73
-rw-r--r-- 1 bsonghao nooijen 1920824 Nov 16 19:58 /scratch/bsonghao/nh3_diabatization_2d_at_mode_7_8_dist0.5_-0.7.F74
-rw-r--r-- 1 bsonghao nooijen       0 Nov 16 19:57 /scratch/bsonghao/nh3_diabatization_2d_at_mode_7_8_dist0.5_-0.7.F75
-rw-r--r-- 1 bsonghao nooijen   58848 Nov 16 19:58 /scratch/bsonghao/nh3_diabatization_2d_at_mode_7_8_dist0.5_-0.7.F76
-rw-r--r-- 1 bsonghao nooijen       0 Nov 16 19:57 /scratch/bsonghao/nh3_diabatization_2d_at_mode_7_8_dist0.5_-0.7.F77
-rw-r--r-- 1 bsonghao nooijen    1864 Nov 16 19:58 /scratch/bsonghao/nh3_diabatization_2d_at_mode_7_8_dist0.5_-0.7.F78
-rw-r--r-- 1 bsonghao nooijen   39208 Nov 16 19:58 /scratch/bsonghao/nh3_diabatization_2d_at_mode_7_8_dist0.5_-0.7.F79
-rw-r--r-- 1 bsonghao nooijen     104 Nov 16 19:58 /scratch/bsonghao/nh3_diabatization_2d_at_mode_7_8_dist0.5_-0.7.F80
-rw-r--r-- 1 bsonghao nooijen   13472 Nov 16 19:58 /scratch/bsonghao/nh3_diabatization_2d_at_mode_7_8_dist0.5_-0.7.F81
-rw-r--r-- 1 bsonghao nooijen      16 Nov 16 19:58 /scratch/bsonghao/nh3_diabatization_2d_at_mode_7_8_dist0.5_-0.7.F82
-rw-r--r-- 1 bsonghao nooijen   19216 Nov 16 19:58 /scratch/bsonghao/nh3_diabatization_2d_at_mode_7_8_dist0.5_-0.7.F83
-rw-r--r-- 1 bsonghao nooijen   29712 Nov 16 19:58 /scratch/bsonghao/nh3_diabatization_2d_at_mode_7_8_dist0.5_-0.7.F84
-rw-r--r-- 1 bsonghao nooijen  401576 Nov 16 19:58 /scratch/bsonghao/nh3_diabatization_2d_at_mode_7_8_dist0.5_-0.7.F85
-rw-r--r-- 1 bsonghao nooijen  903672 Nov 16 19:58 /scratch/bsonghao/nh3_diabatization_2d_at_mode_7_8_dist0.5_-0.7.F86
-rw-r--r-- 1 bsonghao nooijen     656 Nov 16 19:58 /scratch/bsonghao/nh3_diabatization_2d_at_mode_7_8_dist0.5_-0.7.F87
-rw-r--r-- 1 bsonghao nooijen   44272 Nov 16 19:58 /scratch/bsonghao/nh3_diabatization_2d_at_mode_7_8_dist0.5_-0.7.F88
-rw-r--r-- 1 bsonghao nooijen     240 Nov 16 19:58 /scratch/bsonghao/nh3_diabatization_2d_at_mode_7_8_dist0.5_-0.7.F89
-rw-r--r-- 1 bsonghao nooijen       0 Nov 16 19:57 /scratch/bsonghao/nh3_diabatization_2d_at_mode_7_8_dist0.5_-0.7.F90
-rw-r--r-- 1 bsonghao nooijen   13760 Nov 16 19:58 /scratch/bsonghao/nh3_diabatization_2d_at_mode_7_8_dist0.5_-0.7.F91
-rw-r--r-- 1 bsonghao nooijen   22776 Nov 16 19:58 /scratch/bsonghao/nh3_diabatization_2d_at_mode_7_8_dist0.5_-0.7.F92
-rw-r--r-- 1 bsonghao nooijen   23168 Nov 16 19:58 /scratch/bsonghao/nh3_diabatization_2d_at_mode_7_8_dist0.5_-0.7.F93
-rw-r--r-- 1 bsonghao nooijen   22776 Nov 16 19:58 /scratch/bsonghao/nh3_diabatization_2d_at_mode_7_8_dist0.5_-0.7.F94
-rw-r--r-- 1 bsonghao nooijen   13760 Nov 16 19:58 /scratch/bsonghao/nh3_diabatization_2d_at_mode_7_8_dist0.5_-0.7.F95
-rw-r--r-- 1 bsonghao nooijen   29440 Nov 16 19:58 /scratch/bsonghao/nh3_diabatization_2d_at_mode_7_8_dist0.5_-0.7.F96
-rw-r--r-- 1 bsonghao nooijen    1184 Nov 16 19:58 /scratch/bsonghao/nh3_diabatization_2d_at_mode_7_8_dist0.5_-0.7.F97
-rw-r--r-- 1 bsonghao nooijen    9808 Nov 16 19:58 /scratch/bsonghao/nh3_diabatization_2d_at_mode_7_8_dist0.5_-0.7.F98
-rw-r--r-- 1 bsonghao nooijen   30264 Nov 16 19:58 /scratch/bsonghao/nh3_diabatization_2d_at_mode_7_8_dist0.5_-0.7.F99
ls: No match.
ls: No match.
ls: No match.
Wed 16 Nov 2022 07:58:13 PM EST
0.313u 0.025s 0:19.74 1.6%	0+0k 48+224io 0pf+0w
