----- GAMESS execution script 'rungms' -----
This job is running on host io002
under operating system Linux at Wed 16 Nov 2022 07:19:49 PM EST
Available scratch disk space (Kbyte units) at beginning of the job is
Filesystem       1K-blocks       Used   Available Use% Mounted on
/dev/sdc1      15378471580 3278917120 11318349060  23% /scratch
GAMESS temporary binary files will be written to /scratch/bsonghao
GAMESS supplementary output files will be written to /home/bsonghao/.gamess_ascii_files/267638
Copying input file nh3_diabatization_2d_at_mode_7_8_dist0.0_-0.8.inp to your run's scratch directory...
cp nh3_diabatization_2d_at_mode_7_8_dist0.0_-0.8.inp /scratch/bsonghao/nh3_diabatization_2d_at_mode_7_8_dist0.0_-0.8.F05
unset echo
/home/bjb2chen/gamess/ddikick.x /home/bjb2chen/gamess/gamess.00.x nh3_diabatization_2d_at_mode_7_8_dist0.0_-0.8 -ddi 1 1 io002 -scr /scratch/bsonghao

 Distributed Data Interface kickoff program.
 Initiating 1 compute processes on 1 nodes to run the following command:
 /home/bjb2chen/gamess/gamess.00.x nh3_diabatization_2d_at_mode_7_8_dist0.0_-0.8 

          ******************************************************
          *         GAMESS VERSION = 02 AUG 2018 (R2)         *
          *             FROM IOWA STATE UNIVERSITY             *
          * M.W.SCHMIDT, K.K.BALDRIDGE, J.A.BOATZ, S.T.ELBERT, *
          *   M.S.GORDON, J.H.JENSEN, S.KOSEKI, N.MATSUNAGA,   *
          *          K.A.NGUYEN, S.J.SU, T.L.WINDUS,           *
          *       TOGETHER WITH M.DUPUIS, J.A.MONTGOMERY       *
          *         J.COMPUT.CHEM.  14, 1347-1363(1993)        *
          **************** 64 BIT LINUX VERSION ****************

  SINCE 1993, STUDENTS AND POSTDOCS WORKING AT IOWA STATE UNIVERSITY
  AND ALSO IN THEIR VARIOUS JOBS AFTER LEAVING ISU HAVE MADE IMPORTANT
  CONTRIBUTIONS TO THE CODE:
     IVANA ADAMOVIC, CHRISTINE AIKENS, YURI ALEXEEV, POOJA ARORA,
     ANDREY ASADCHEV, ROB BELL, PRADIPTA BANDYOPADHYAY, JONATHAN BENTZ,
     BRETT BODE, KURT BRORSEN, CALEB CARLIN, GALINA CHABAN, WEI CHEN,
     CHEOL HO CHOI, PAUL DAY, ALBERT DEFUSCO, NUWAN DESILVA, TIM DUDLEY,
     DMITRI FEDOROV, ALEX FINDLATER, GRAHAM FLETCHER, MARK FREITAG,
     KURT GLAESEMANN, ANASTASIA GUININA,
     DAN KEMP, GRANT MERRILL, NORIYUKI MINEZAWA, JONATHAN MULLIN,
     TAKESHI NAGATA, SEAN NEDD, HEATHER NETZLOFF, BOSILJKA NJEGIC, RYAN OLSON,
     MIKE PAK, BUU PHAM,
     SPENCER PRUITT, LUKE ROSKOP, JIM SHOEMAKER, LYUDMILA SLIPCHENKO,
     TONY SMITH, SAROM SOK LEANG, JIE SONG, TETSUYA TAKETSUGU, SIMON WEBB,
     PENG XU, SOOHAENG YOO, FEDERICO ZAHARIEV

  ADDITIONAL CODE HAS BEEN PROVIDED BY COLLABORATORS IN OTHER GROUPS:
     IOWA STATE UNIVERSITY:
          JOE IVANIC, AARON WEST, LAIMUTIS BYTAUTAS, KLAUS RUEDENBERG
     UNIVERSITY OF TOKYO: KIMIHIKO HIRAO, TAKAHITO NAKAJIMA,
          TAKAO TSUNEDA, MUNEAKI KAMIYA, SUSUMU YANAGISAWA,
          KIYOSHI YAGI, MAHITO CHIBA, SEIKEN TOKURA, NAOAKI KAWAKAMI
     UNIVERSITY OF AARHUS: FRANK JENSEN
     UNIVERSITY OF IOWA: VISVALDAS KAIRYS, HUI LI
     NATIONAL INST. OF STANDARDS AND TECHNOLOGY: WALT STEVENS, DAVID GARMER
     UNIVERSITY OF PISA: BENEDETTA MENNUCCI, JACOPO TOMASI
     UNIVERSITY OF MEMPHIS: HENRY KURTZ, PRAKASHAN KORAMBATH
     UNIVERSITY OF ALBERTA: TOBY ZENG, MARIUSZ KLOBUKOWSKI
     UNIVERSITY OF NEW ENGLAND: MARK SPACKMAN
     MIE UNIVERSITY: HIROAKI UMEDA
     NAT. INST. OF ADVANCED INDUSTRIAL SCIENCE AND TECHNOLOGY: KAZUO KITAURA
     MICHIGAN STATE UNIVERSITY:
          KAROL KOWALSKI, MARTA WLOCH, JEFFREY GOUR, JESSE LUTZ,
          WEI LI, JUN SHEN, J. EMILIANO DEUSTUA, PIOTR PIECUCH
     UNIVERSITY OF MINNESOTA:
          YINAN SHU
     UNIVERSITY OF SILESIA: MONIKA MUSIAL, STANISLAW KUCHARSKI
     FACULTES UNIVERSITAIRES NOTRE-DAME DE LA PAIX:
          OLIVIER QUINET, BENOIT CHAMPAGNE
     UNIVERSITY OF CALIFORNIA - SANTA BARBARA: BERNARD KIRTMAN
     INSTITUTE FOR MOLECULAR SCIENCE:
          KAZUYA ISHIMURA, MICHIO KATOUDA, AND SHIGERU NAGASE
     UNIVERSITY OF NOTRE DAME: ANNA POMOGAEVA, DAN CHIPMAN
     KYUSHU UNIVERSITY:
          HARUYUKI NAKANO,
          FENG LONG GU, JACEK KORCHOWIEC, MARCIN MAKOWSKI, AND YURIKO AOKI,
          HIROTOSHI MORI AND EISAKU MIYOSHI
     PENNSYLVANIA STATE UNIVERSITY:
          TZVETELIN IORDANOV, CHET SWALINA, JONATHAN SKONE,
          SHARON HAMMES-SCHIFFER
     WASEDA UNIVERSITY:
          MASATO KOBAYASHI, TOMOKO AKAMA, TSUGUKI TOUMA,
          TAKESHI YOSHIKAWA, YASUHIRO IKABATA, JUNJI SEINO,
          YUYA NAKAJIMA, HIROMI NAKAI
     NANJING UNIVERSITY: SHUHUA LI
     UNIVERSITY OF NEBRASKA:
          PEIFENG SU, DEJUN SI, NANDUN THELLAMUREGE, YALI WANG, HUI LI
     UNIVERSITY OF ZURICH: ROBERTO PEVERATI, KIM BALDRIDGE
     N. COPERNICUS UNIVERSITY AND JACKSON STATE UNIVERSITY:
          MARIA BARYSZ
     UNIVERSITY OF COPENHAGEN: Jimmy Kromann, CASPER STEINMANN
     TOKYO INSTITUTE OF TECHNOLOGY: HIROYA NAKATA
     NAGOYA UNIVERSITY: YOSHIO NISHIMOTO, STEPHAN IRLE
     MOSCOW STATE UNIVERSITY: VLADIMIR MIRONOV

 EXECUTION OF GAMESS BEGUN Wed Nov 16 19:19:50 2022

            ECHO OF THE FIRST FEW INPUT CARDS -
 INPUT CARD> $system kdiag=3 mwords=100 memddi=1000 parall=.t. $end                         
 INPUT CARD> $contrl runtyp=energy ispher=1 $end                                            
 INPUT CARD> $contrl icut=9 itol=20 inttyp=rysquad qmttol=1.0d-05 nosym=1 $end              
 INPUT CARD> $scf    npunch=2 conv=1.0d-06 dirscf=.t.      $end                             
 INPUT CARD> $contrl scftyp=mcscf  mult=2 maxit=200 icharg=1 mplevl=2 $end                  
 INPUT CARD> $guess  guess=moread norb=29 purify=.t. $end                                   
 INPUT CARD> $basis  gbasis=ccd $end                                                        
 INPUT CARD> $mcscf  cistep=gmcci fullnr=.t. finci=mos                                      
 INPUT CARD>         acurcy=1.d-6 maxit=100 $end                                            
 INPUT CARD> $trans  dirtrf=.t. $end                                                        
 INPUT CARD> $mrmp   mrpt=gmcpt rdvecs=.f. $end                                             
 INPUT CARD> $gmcpt  nmofzc=0 nmodoc=1 nmoact=7 nelact=7 stsym(1)=A                         
 INPUT CARD>         reftyp=ormas nspace=1 mstart(1)=2 mine(1)=7 maxe(1)=7                  
 INPUT CARD>         kstate(1)=1,1,1                                                        
 INPUT CARD>         wstate(1)=1,1,1                                                        
 INPUT CARD>         iwgt=0 thrwgt=-1.0 krot=.f. kszdoe=.f. knospn=.f.                      
 INPUT CARD>         thrde=-1.0 edshft=0.02 $end                                            
 INPUT CARD> $data                                                                          
 INPUT CARD> NH3+ 3 states calculation at NH3 structure.                                    
 INPUT CARD> c1                                                                             
 INPUT CARD>N 7.0 0.049831344 0.0 -0.1693802522                                             
 INPUT CARD>H 1.0 -0.87263289 0.5002684958000001 0.3620477241                               
 INPUT CARD>H 1.0 -0.872632874 -0.5002685038000001 0.3620477401                             
 INPUT CARD>H 1.0 1.052845876 -1.6e-08 0.04527860410000001                                  
 INPUT CARD>$end                                                                            
 INPUT CARD>--- OPTIMIZED RHF      MO-S --- GENERATED AT Mon Nov 14 16:47:08 2022           
 INPUT CARD>E=      -56.3825050291, E(NUC)=   11.8429239490                                 
 INPUT CARD> $VEC                                                                           
 INPUT CARD> 1  1-1.00134066E+00-2.25158504E-03 3.44925845E-03 0.00000000E+00 0.00000000E+00
 INPUT CARD> 1  2-2.13170927E-03 0.00000000E+00 0.00000000E+00 6.57129898E-04-6.87950443E-05
 INPUT CARD> 1  3-6.87950443E-05 1.37590089E-04 0.00000000E+00 0.00000000E+00 0.00000000E+00
 INPUT CARD> 1  4 3.25502815E-04-4.84772356E-04 3.62525460E-04-6.27912517E-04-3.45956485E-04
 INPUT CARD> 1  5 3.25502815E-04-4.84772356E-04 3.62525460E-04 6.27912517E-04-3.45956485E-04
 INPUT CARD> 1  6 3.25502815E-04-4.84772356E-04-7.25050921E-04 0.00000000E+00-3.45956485E-04
 INPUT CARD> 2  1 1.31286642E-02-4.05911371E-01-2.82090992E-01 0.00000000E+00 0.00000000E+00
 INPUT CARD> 2  2-7.71489043E-02 0.00000000E+00 0.00000000E+00 9.73717494E-03 6.62450916E-04
 INPUT CARD> 2  3 6.62450916E-04-1.32490183E-03 0.00000000E+00 0.00000000E+00 0.00000000E+00
 INPUT CARD> 2  4-1.96090317E-01-1.96656153E-02-1.74855877E-02 3.02859263E-02 8.68214399E-03
 INPUT CARD> 2  5-1.96090317E-01-1.96656153E-02-1.74855877E-02-3.02859263E-02 8.68214399E-03
 INPUT CARD> 2  6-1.96090317E-01-1.96656153E-02 3.49711754E-02 0.00000000E+00 8.68214399E-03
 INPUT CARD> 3  1 0.00000000E+00 0.00000000E+00 0.00000000E+00 4.48608762E-01 0.00000000E+00
 INPUT CARD> 3  2 0.00000000E+00 2.18692520E-01 0.00000000E+00 0.00000000E+00 1.30198027E-02
 INPUT CARD> 3  3-1.30198027E-02 0.00000000E+00 0.00000000E+00 2.71832968E-02 0.00000000E+00
 INPUT CARD> 3  4-1.85332726E-01-7.03958951E-02 8.47929477E-03 1.95242443E-02 8.32835058E-03
 INPUT CARD> 3  5-1.85332726E-01-7.03958951E-02 8.47929477E-03-1.95242443E-02 8.32835058E-03
 INPUT CARD> 3  6 3.70665453E-01 1.40791790E-01-2.53376884E-02 0.00000000E+00-1.66567012E-02
 INPUT CARD> 4  1 0.00000000E+00 0.00000000E+00 0.00000000E+00 0.00000000E+00 4.48608762E-01
 INPUT CARD> 4  2 0.00000000E+00 0.00000000E+00 2.18692520E-01 0.00000000E+00 0.00000000E+00
 INPUT CARD> 4  3 0.00000000E+00 0.00000000E+00-1.50339731E-02 0.00000000E+00 2.71832968E-02
 INPUT CARD> 4  4 3.21005698E-01 1.21929267E-01 1.95242443E-02-1.40653607E-02-1.44251263E-02
  100000000 WORDS OF MEMORY AVAILABLE

     BASIS OPTIONS
     -------------
     GBASIS=CCD          IGAUSS=       0      POLAR=NONE    
     NDFUNC=       0     NFFUNC=       0     DIFFSP=       F
     NPFUNC=       0      DIFFS=       F     BASNAM=        


     RUN TITLE
     ---------
  NH3+ 3 states calculation at NH3 structure.                                    

 THE POINT GROUP OF THE MOLECULE IS C1      
 THE ORDER OF THE PRINCIPAL AXIS IS     0

 ATOM      ATOMIC                      COORDINATES (BOHR)
           CHARGE         X                   Y                   Z
 N           7.0     0.0941675858        0.0000000000       -0.3200822644
 H           1.0    -1.6490370500        0.9453703774        0.6841709930
 H           1.0    -1.6490370197       -0.9453703925        0.6841710233
 H           1.0     1.9895902129       -0.0000000302        0.0855641549

          INTERNUCLEAR DISTANCES (ANGS.)
          ------------------------------

                1 N          2 H          3 H          4 H     

   1 N       0.0000000    1.1762757 *  1.1762757 *  1.0257273 *
   2 H       1.1762757 *  0.0000000    1.0005370 *  2.0144676 *
   3 H       1.1762757 *  1.0005370 *  0.0000000    2.0144676 *
   4 H       1.0257273 *  2.0144676 *  2.0144676 *  0.0000000  

  * ... LESS THAN  3.000


     ATOMIC BASIS SET
     ----------------
 THE CONTRACTED PRIMITIVE FUNCTIONS HAVE BEEN UNNORMALIZED
 THE CONTRACTED BASIS FUNCTIONS ARE NOW NORMALIZED TO UNITY

  SHELL TYPE  PRIMITIVE        EXPONENT          CONTRACTION COEFFICIENT(S)

 N         

      1   S       1          9046.0000000    0.000699617413
      1   S       2          1357.0000000    0.005386054630
      1   S       3           309.3000000    0.027391021189
      1   S       4            87.7300000    0.103150591982
      1   S       5            28.5600000    0.278570663317
      1   S       6            10.2100000    0.448294849454
      1   S       7             3.8380000    0.278085928395
      1   S       8             0.7466000    0.015431561233

      2   S       9          9046.0000000   -0.000304990096
      2   S      10          1357.0000000   -0.002408026379
      2   S      11           309.3000000   -0.011944448725
      2   S      12            87.7300000   -0.048925992909
      2   S      13            28.5600000   -0.134472724725
      2   S      14            10.2100000   -0.315112577700
      2   S      15             3.8380000   -0.242857832550
      2   S      16             0.7466000    1.094382206854

      3   S      17             0.2248000    1.000000000000

      4   P      18            13.5500000    0.058905676772
      4   P      19             2.9170000    0.320461106714
      4   P      20             0.7973000    0.753042061792

      5   P      21             0.2185000    1.000000000000

      6   D      22             0.8170000    1.000000000000

 H         

      7   S      23            13.0100000    0.033498726390
      7   S      24             1.9620000    0.234800801174
      7   S      25             0.4446000    0.813682957883

      8   S      26             0.1220000    1.000000000000

      9   P      27             0.7270000    1.000000000000

 H         

     10   S      28            13.0100000    0.033498726390
     10   S      29             1.9620000    0.234800801174
     10   S      30             0.4446000    0.813682957883

     11   S      31             0.1220000    1.000000000000

     12   P      32             0.7270000    1.000000000000

 H         

     13   S      33            13.0100000    0.033498726390
     13   S      34             1.9620000    0.234800801174
     13   S      35             0.4446000    0.813682957883

     14   S      36             0.1220000    1.000000000000

     15   P      37             0.7270000    1.000000000000

 TOTAL NUMBER OF BASIS SET SHELLS             =   15
 NUMBER OF CARTESIAN GAUSSIAN BASIS FUNCTIONS =   30
 NOTE: THIS RUN WILL RESTRICT THE MO VARIATION SPACE TO SPHERICAL HARMONICS.
 THE NUMBER OF ORBITALS KEPT IN THE VARIATIONAL SPACE WILL BE PRINTED LATER.
 NUMBER OF ELECTRONS                          =    9
 CHARGE OF MOLECULE                           =    1
 SPIN MULTIPLICITY                            =    2
 NUMBER OF OCCUPIED ORBITALS (ALPHA)          =    5
 NUMBER OF OCCUPIED ORBITALS (BETA )          =    4
 TOTAL NUMBER OF ATOMS                        =    4
 THE NUCLEAR REPULSION ENERGY IS       10.9638534249

     $CONTRL OPTIONS
     ---------------
 SCFTYP=MCSCF        RUNTYP=ENERGY       EXETYP=RUN     
 MPLEVL=       2     CITYP =NONE         CCTYP =NONE         VBTYP =NONE    
 DFTTYP=NONE         TDDFT =NONE    
 MULT  =       2     ICHARG=       1     NZVAR =       0     COORD =UNIQUE  
 PP    =NONE         RELWFN=NONE         LOCAL =NONE         NUMGRD=       F
 ISPHER=       1     NOSYM =       1     MAXIT =     200     UNITS =ANGS    
 PLTORB=       F     MOLPLT=       F     AIMPAC=       F     FRIEND=        
 NPRINT=       7     IREST =       0     GEOM  =INPUT   
 NORMF =       0     NORMP =       0     ITOL  =      20     ICUT  =       9
 INTTYP=RYSQUAD      GRDTYP=BEST         QMTTOL= 1.0E-05

     $SYSTEM OPTIONS
     ---------------
  REPLICATED MEMORY=   100000000 WORDS (ON EVERY NODE).
 DISTRIBUTED MEMDDI=        1000 MILLION WORDS IN AGGREGATE,
 MEMDDI DISTRIBUTED OVER   1 PROCESSORS IS  1000000000 WORDS/PROCESSOR.
 TOTAL MEMORY REQUESTED ON EACH PROCESSOR=  1100000000 WORDS.
 TIMLIM=      525600.00 MINUTES, OR     365.0 DAYS.
 PARALL= T  BALTYP=  DLB     KDIAG=    3  COREFL= F
 MXSEQ2=     300 MXSEQ3=     150  mem10=         0

          ----------------
          PROPERTIES INPUT
          ----------------

     MOMENTS            FIELD           POTENTIAL          DENSITY
 IEMOM =       1   IEFLD =       0   IEPOT =       0   IEDEN =       0
 WHERE =COMASS     WHERE =NUCLEI     WHERE =NUCLEI     WHERE =NUCLEI  
 OUTPUT=BOTH       OUTPUT=BOTH       OUTPUT=BOTH       OUTPUT=BOTH    
 IEMINT=       0   IEFINT=       0                     IEDINT=       0
                                                       MORB  =       0

     -------------------------------
     INTEGRAL TRANSFORMATION OPTIONS
     -------------------------------
     NWORD  =            0
     CUTOFF = 1.0E-09     MPTRAN =       0
     DIRTRF =       T     AOINTS =DUP     

          ----------------------
          MCSCF INPUT PARAMETERS
          ----------------------
 CONVERGER SELECTION: FOCAS = F  SOSCF = F  FULLNR = T  QUD = F  JACOBI = F
 SECULAR EQUATION METHOD CISTEP = GMCCI   
 --- GENERAL INPUT OPTIONS:
 MAXIT =     100  MICIT =       1  ACURCY= 1.000E-06
 DAMP  =   0.000  CANONC=       T  ENGTOL= 1.000E-10
 EKT   =       F  NPUNCH=       2  NWORD =         0
 REGENERATE CI AFTER CONVERGENCE = NONE    
 DIABATIZATION AFTER CONVERGENCE =        F
 --- INPUT FOR FULLNR CONVERGER:
 METHOD=DM2       FORS  =       F  DROPC =       T
 LINSER=       F  FCORE =       F  NORB  =      30

          ----------------------
          INTEGRAL INPUT OPTIONS
          ----------------------
 NOPK  =       1 NORDER=       0 SCHWRZ=       T

 ------------------------------------------
 MULTIREFERENCE PERTURBATION THEORY CONTROL
 ------------------------------------------
 MRPT=GMCPT    READ CONVERGED MCSCF VECTORS= F


     ------------------------------------------
     THE POINT GROUP IS C1 , NAXIS= 1, ORDER= 1
     ------------------------------------------

 -- VARIATIONAL SPACE WILL BE RESTRICTED TO PURE SPHERICAL HARMONICS ONLY --
 AFTER EXCLUDING CONTAMINANT COMBINATIONS FROM THE CARTESIAN GAUSSIAN BASIS
 SET, THE NUMBER OF SPHERICAL HARMONICS KEPT IN THE VARIATION SPACE IS   29

     DIMENSIONS OF THE SYMMETRY SUBSPACES ARE
 A   =   29

 ..... DONE SETTING UP THE RUN .....
 CPU     0: STEP CPU TIME=     0.04 TOTAL CPU TIME=          0.0 (      0.0 MIN)
 TOTAL WALL CLOCK TIME=          0.0 SECONDS, CPU UTILIZATION IS   100.00%

          ********************
          1 ELECTRON INTEGRALS
          ********************
 TIME TO DO   DIPOLE INTEGRALS=      0.00
 ...... END OF ONE-ELECTRON INTEGRALS ......
 CPU     0: STEP CPU TIME=     0.00 TOTAL CPU TIME=          0.0 (      0.0 MIN)
 TOTAL WALL CLOCK TIME=          0.0 SECONDS, CPU UTILIZATION IS   100.00%

          -------------
          GUESS OPTIONS
          -------------
          GUESS =MOREAD            NORB  =      29          NORDER=       0
          MIX   =       F          PRTMO =       F          PUNMO =       F
          TOLZ  = 1.0E-08          TOLE  = 1.0E-05
          SYMDEN=       F          PURIFY=       T

 INITIAL GUESS ORBITALS GENERATED BY MOREAD   ROUTINE.

 STATISTICS FOR GENERATION OF SYMMETRY ORBITAL -Q- MATRIX
 NUMBER OF CARTESIAN ATOMIC ORBITALS=         30
 NUMBER OF SPHERICAL CONTAMINANTS DROPPED=     1
 NUMBER OF LINEARLY DEPENDENT MOS DROPPED=     0
 TOTAL NUMBER OF MOS IN VARIATION SPACE=      29
 ORBITAL PURIFICATION WILL OCCUR

 SYMMETRIES FOR INITIAL GUESS ORBITALS FOLLOW.   BOTH SET(S).
     5 ORBITALS ARE OCCUPIED (    1 CORE ORBITALS).
     1=A        2=A        3=A        4=A        5=A        6=A        7=A   
     8=A        9=A       10=A       11=A       12=A       13=A       14=A   
    15=A       16=A       17=A       18=A       19=A       20=A       21=A   
    22=A       23=A       24=A       25=A       26=A       27=A       28=A   
    29=A   
 ...... END OF INITIAL ORBITAL SELECTION ......
 CPU     0: STEP CPU TIME=     0.00 TOTAL CPU TIME=          0.0 (      0.0 MIN)
 TOTAL WALL CLOCK TIME=          0.1 SECONDS, CPU UTILIZATION IS    80.00%

                    ----------------------
                    AO INTEGRAL TECHNOLOGY
                    ----------------------
     S,P,L SHELL ROTATED AXIS INTEGRALS, REPROGRAMMED BY
        KAZUYA ISHIMURA (IMS) AND JOSE SIERRA (SYNSTAR).
     S,P,D,L SHELL ROTATED AXIS INTEGRALS PROGRAMMED BY
        KAZUYA ISHIMURA (INSTITUTE FOR MOLECULAR SCIENCE).
     S,P,D,F,G SHELL TO TOTAL QUARTET ANGULAR MOMENTUM SUM 5,
        ERIC PROGRAM BY GRAHAM FLETCHER (ELORET AND NASA ADVANCED
        SUPERCOMPUTING DIVISION, AMES RESEARCH CENTER).
     S,P,D,F,G,L SHELL GENERAL RYS QUADRATURE PROGRAMMED BY
        MICHEL DUPUIS (PACIFIC NORTHWEST NATIONAL LABORATORY).

          --------------------
          2 ELECTRON INTEGRALS
          --------------------

 DIRECT SCF METHOD SKIPS INTEGRAL STORAGE ON DISK.
 DIRECT TRANSFORMATION SKIPS AO INTEGRAL STORAGE ON DISK.
  ...... END OF TWO-ELECTRON INTEGRALS .....
 STEP CPU TIME =     0.02 TOTAL CPU TIME =          0.1 (      0.0 MIN)
 TOTAL WALL CLOCK TIME=          0.1 SECONDS, CPU UTILIZATION IS    85.71%
 DDI: Creating Array [0] - 900 x 36 = 32400 words.
 DDI: Creating Array [1] - 21 x 288 = 6048 words.
 DDI: Creating Array [2] - 36 x 36 = 1296 words.
 DDI: Creating Array [3] - 465 x 36 = 16740 words.

          -----------------
          MCSCF CALCULATION
          -----------------

 ----- NUCLEAR ENERGY ----- =        10.9638534249

     -------------------------------------------------
     GMC-PT/GMC-QDPT or general MCSCF input parameters
     -------------------------------------------------
 # of frozen core orbs. =         0 ->         0
 # of doubly occ. orbs. =         1
 # of active      orbs. =         7
 # of virtual     orbs. =        21
 # of active electrons  =         7
 # of states in CI      =         3
 Highest state in CI    =         3
 kstate =  1 1 1
 avecoe =  0.333 0.333 0.333
 State symmetry           = A           
 Assigned symmetry number = 1

 <<<Act. MO sym.: 1111111

 <<<Division of 1-ext.:  0
 <<<Division of 2-ext.:  0

 *** Reference space

 Reference type: ORMAS (= Occupation restricted multiple active space)
 # of orbitals          =  7
 # of minimum electrons =  7
 # of maximum electrons =  7
 State symmetry    =    1 (input)
 2*Sz              =    1 (input)
 Spin multiplicity =    2 (input)
 Dimension of reference space =      1225  (from      3432 walks)

 Dimension of reference space =      1225  (from      1225 walks)

 <<<Ionized spaces for Ref-CI:
      0:         1225 /   -1-0:         1960 /  0-1-0:         2891

 EVALUATING EXCHANGE INTEGRALS FOR DIRECT INTEGRAL TRANSFORMATION
 SCHWARZ INEQUALITY OVERHEAD:       465 INTEGRALS, T=        0.00

     --------------------------------------------
     PARTIAL TWO ELECTRON INTEGRAL TRANSFORMATION
     --------------------------------------------

 NUMBER OF CORE MOLECULAR ORBITALS     =    1
 NUMBER OF OCCUPIED MOLECULAR ORBITALS =    8
 TOTAL NUMBER OF MOLECULAR ORBITALS    =   29
 TOTAL NUMBER OF ATOMIC ORBITALS       =   30
 THRESHOLD FOR KEEPING TRANSFORMED 2E- INTEGRALS = 1.000E-09

 -------------------------------     ------------------------------
 DISTRIBUTED DATA TRANSFORMATION     PROGRAM WRITTEN BY G. FLETCHER
 -------------------------------     ------------------------------

 THE DISTRIBUTED MEMORY REQUIRED FOR THIS STEP IS MEMDDI=         1 MWORDS
 CREATING DISTRIBUTED STORAGE FOR [VIR OCC|VIR OCC] INTEGRALS
 CREATING DISTRIBUTED STORAGE FOR [VIR OCC|OCC OCC] INTEGRALS
 CREATING DISTRIBUTED STORAGE FOR [OCC OCC|OCC OCC] INTEGRALS
 CREATING DISTRIBUTED STORAGE FOR [VIR VIR|OCC OCC] INTEGRALS
 FOR    1 PROCESSORS, THE REPLICATED MEMORY NEEDED IS       73700 WORDS.
 SCHWARZ INEQUALITY OVERHEAD:       465 INTEGRALS, T=        0.00

      DIRECT 4-INDEX TRANSFORMATION 
      SCHWARZ INEQUALITY TEST SKIPPED          0 INTEGRAL BLOCKS
 ----- FROZEN CORE ENERGY =       -47.5632177792
 ... END OF INTEGRAL TRANSFORMATION ...
 CPU     0: STEP CPU TIME=     0.23 TOTAL CPU TIME=          0.3 (      0.0 MIN)
 TOTAL WALL CLOCK TIME=          0.3 SECONDS, CPU UTILIZATION IS   100.00%

     --------------------------------     -----------------------------
     MCHF NEWTON-RAPHSON OPTIMIZATION     CODE WRITTEN BY MICHEL DUPUIS
     --------------------------------     -----------------------------
     PARALLEL VERSION WRITTEN BY G. FLETCHER (ELORET)
     NASA ADVANCED SUPERCOMPUTING DIVISION, AMES RESEARCH CENTER

 NUMBER OF INDEPENDENT ORBITAL ROTATION PARAMETERS =   117
 ..... DONE SOLVING NEWTON-RAPHSON EQUATIONS .....
 CPU     0: STEP CPU TIME=     0.59 TOTAL CPU TIME=          0.9 (      0.0 MIN)
 TOTAL WALL CLOCK TIME=          0.9 SECONDS, CPU UTILIZATION IS   100.00%
 ..... DONE WITH NTN-RPH ORBITAL ROTATIONS ..... 
 CPU     0: STEP CPU TIME=     0.00 TOTAL CPU TIME=          0.9 (      0.0 MIN)
 TOTAL WALL CLOCK TIME=          0.9 SECONDS, CPU UTILIZATION IS   100.00%
 MAXIMUM MEMORY USED BY NTN-RPH CODE WAS     57645 WORDS.

 ITER     TOTAL ENERGY      DEL(E)  LAGRANGIAN ASYMMETRY   SQCDF  MICIT   DAMP
   1      -55.543539519 -0.543539519  0.177540   10    4 9.024E-02  1   0.0000
   2      -55.611132312 -0.067592793  0.021112   12    5 4.584E-01  1   0.0000
   3      -55.648866843 -0.037734531  0.015382   14    8 2.513E-01  1   0.0168
   4      -55.666979918 -0.018113075  0.005679    9    7 6.408E-02  1   0.0070
   5      -55.670029662 -0.003049743  0.000961   24    5 2.276E-03  1   0.0000
   6      -55.670137005 -0.000107343  0.000408   22    5 1.965E-04  1   0.0000
   7      -55.670147885 -0.000010880  0.000201   22    5 3.909E-05  1   0.0000
   8      -55.670150132 -0.000002248  0.000104   22    5 1.006E-05  1   0.0000
   9      -55.670150718 -0.000000586  0.000057   22    5 3.067E-06  1   0.0000
  10      -55.670150897 -0.000000179  0.000032   22    5 1.048E-06  1   0.0000
  11      -55.670150958 -0.000000061  0.000018   22    5 3.827E-07  1   0.0000
  12      -55.670150980 -0.000000022  0.000011   22    5 1.448E-07  1   0.0000
  13      -55.670150988 -0.000000008  0.000006   22    5 5.580E-08  1   0.0000
  14      -55.670150991 -0.000000003  0.000004   22    5 2.164E-08  1   0.0000
  15      -55.670150993 -0.000000001  0.000002   22    5 8.453E-09  1   0.0000
  16      -55.670150993 -0.000000000  0.000001   12    7 3.135E-09  1   0.0000
  17      -55.670150993 -0.000000000  0.000002   13    3 1.363E-09  1   0.0000
  18      -55.670150993 -0.000000000  0.000001   22    5 5.143E-10  1   0.0000

          --------------------
          LAGRANGIAN CONVERGED
          --------------------

 FINAL MCSCF ENERGY IS      -55.6701509934 AFTER  18 ITERATIONS

 -MCCI- BASED ON OPTIMIZED ORBITALS
 ----------------------------------

 PLEASE NOTE: IF THE ACTIVE ORBITALS ARE CANONICALIZED BELOW,
 THE FOLLOWING CI EXPANSION COEFFICIENTS AND THE DENSITY DO NOT
 CORRESPOND TO THE PRINTED ORBITALS.  THE PRINTED EXPANSIONS MATCH
 THE ORBITALS USED DURING THE LAST ITERATION.  IF YOU WISH TO SEE
 CI EXPANSIONS BASED ON THE CANONICAL (OR NATURAL) ORBITALS, YOU
 MUST RUN A CI CALCULATION WITH THAT ORBITAL CHOICE READ IN $VEC.

 Averaged energy =     -55.670150993

 State #    1  Energy =     -55.798573151  S =  0.500

      Det      Coef    Occupancy (Ignoring core)
      ---      ----    --------- --------- -----
        1    0.934365  11110001110000
        5   -0.071198  01111001110000
        8   -0.132422  10110101110000
       17   -0.142726  11010011110000
       71    0.133592  11110001011000
      211    0.053673  11110000110100
      386    0.108962  11110001010010
      701    0.105853  11110001100001
      717    0.070790  11010011100001

 State #    2  Energy =     -55.739566164  S =  0.500

      Det      Coef    Occupancy (Ignoring core)
      ---      ----    --------- --------- -----
       36    0.952819  11110001101000
       39    0.061344  10111001101000
       40   -0.076943  01111001101000
       43   -0.107775  10110101101000
       52   -0.126498  11010011101000
      281    0.052023  11110000101100
      456    0.096619  11110001001010

 State #    3  Energy =     -55.472313665  S =  0.500

      Det      Coef    Occupancy (Ignoring core)
      ---      ----    --------- --------- -----
        1    0.134011  11110001110000
       38   -0.069842  11011001101000
       71   -0.944122  11110001011000
       72    0.057908  11101001011000
       78    0.062874  10110101011000
       87    0.081794  11010011011000
      122   -0.059258  11010010111000
      316   -0.082838  11110000011100
      806    0.102428  11110001001001
      822    0.080622  11010011001001

 DENSITY MATRIX OVER ACTIVE MO-S

             1           2           3           4           5

    1    1.9711730
    2   -0.0096632   1.6346060
    3   -0.0000000  -0.0000000   1.6160756
    4    0.0024476   0.0015048  -0.0000000   1.6468680
    5    0.1090641   0.0622519   0.0000000  -0.0594639   0.0458324
    6    0.0101080  -0.1540614  -0.0000000  -0.0488566   0.0007114
    7    0.0000000   0.0000000   0.1712549   0.0000000   0.0000000

             6           7

    6    0.0356698
    7   -0.0000000   0.0497753

 FORMING THE "STANDARD FOCK OPERATOR" IN DIRECT AO INTEGRAL MODE...
 ONLY THE    1 CORE AND   21 VIRTUAL ORBITALS WILL BE CANONICALIZED

          ----------------------
          MCSCF NATURAL ORBITALS
          ----------------------

                      1          2          3          4          5
                  -15.9872     1.9775     1.6549     1.6472     1.6346
                     A          A          A          A          A   
    1  N  1  S    1.001061   0.008645  -0.007287  -0.006350   0.000000
    2  N  1  S   -0.001898   0.433070  -0.067371  -0.189050   0.000000
    3  N  1  S   -0.006284   0.342816  -0.144160  -0.268108   0.000000
    4  N  1  X    0.000284  -0.021801   0.394275  -0.225876   0.000000
    5  N  1  Y   -0.000000  -0.000000   0.000000   0.000000   0.570536
    6  N  1  Z    0.001218   0.079406   0.394259   0.416566   0.000000
    7  N  1  X    0.000177  -0.009283   0.158662  -0.032372   0.000000
    8  N  1  Y   -0.000000  -0.000000   0.000000   0.000000   0.347237
    9  N  1  Z   -0.000664   0.020667   0.278337   0.261298   0.000000
   10  N  1 XX    0.000541   0.005233  -0.004064  -0.009208   0.000000
   11  N  1 YY   -0.000293  -0.004493  -0.010258  -0.008230  -0.000000
   12  N  1 ZZ   -0.000248  -0.000740   0.014322   0.017439  -0.000000
   13  N  1 XY   -0.000000  -0.000000  -0.000000   0.000000  -0.010491
   14  N  1 XZ    0.000020  -0.003194   0.014230  -0.012188   0.000000
   15  N  1 YZ   -0.000000  -0.000000  -0.000000  -0.000000   0.024370
   16  H  2  S   -0.001337   0.182874  -0.087835   0.267648   0.248150
   17  H  2  S    0.000268   0.003644   0.005938   0.047989   0.126731
   18  H  2  X   -0.000567   0.025436  -0.001227   0.016612   0.026431
   19  H  2  Y    0.000392  -0.017799   0.007326  -0.026701   0.002091
   20  H  2  Z    0.000396  -0.010663   0.023393   0.005473  -0.013482
   21  H  3  S   -0.001337   0.182874  -0.087835   0.267648  -0.248150
   22  H  3  S    0.000268   0.003644   0.005938   0.047989  -0.126731
   23  H  3  X   -0.000567   0.025436  -0.001227   0.016612  -0.026431
   24  H  3  Y   -0.000392   0.017799  -0.007326   0.026701   0.002091
   25  H  3  Z    0.000396  -0.010663   0.023393   0.005473   0.013482
   26  H  4  S   -0.002020   0.170464   0.346084  -0.159399  -0.000000
   27  H  4  S    0.000717  -0.002334   0.047459  -0.005556   0.000000
   28  H  4  X    0.001079  -0.032449  -0.037752   0.019790   0.000000
   29  H  4  Y   -0.000000   0.000000   0.000000  -0.000000   0.020708
   30  H  4  Z    0.000309  -0.002202   0.006062   0.020732   0.000000

                      6          7          8
                    0.0362     0.0313     0.0184
                     A          A          A   
    1  N  1  S    0.126799   0.000000  -0.162496
    2  N  1  S    0.505998  -0.000000  -0.471866
    3  N  1  S    0.247727  -0.000000   0.050627
    4  N  1  X   -0.346051   0.000000  -0.846814
    5  N  1  Y    0.000000   0.759595   0.000000
    6  N  1  Z    0.578542  -0.000000  -0.152468
    7  N  1  X   -0.126559   0.000000  -0.131164
    8  N  1  Y   -0.000000  -0.106656   0.000000
    9  N  1  Z    0.016684  -0.000000   0.101031
   10  N  1 XX   -0.042876   0.000000   0.036095
   11  N  1 YY    0.043036  -0.000000  -0.004460
   12  N  1 ZZ   -0.000160  -0.000000  -0.031635
   13  N  1 XY    0.000000   0.057216   0.000000
   14  N  1 XZ    0.037145  -0.000000   0.032471
   15  N  1 YZ   -0.000000  -0.016145   0.000000
   16  H  2  S   -0.476759  -0.614468  -0.165959
   17  H  2  S   -0.072013  -0.286290  -0.040313
   18  H  2  X   -0.011344  -0.054044   0.013831
   19  H  2  Y    0.049225  -0.002265   0.020573
   20  H  2  Z   -0.021539   0.019829  -0.006633
   21  H  3  S   -0.476759   0.614468  -0.165959
   22  H  3  S   -0.072013   0.286290  -0.040313
   23  H  3  X   -0.011344   0.054044   0.013831
   24  H  3  Y   -0.049225  -0.002265  -0.020573
   25  H  3  Z   -0.021539  -0.019829  -0.006633
   26  H  4  S   -0.292053  -0.000000   0.857501
   27  H  4  S   -0.016800  -0.000000   0.155901
   28  H  4  X    0.037808   0.000000  -0.082551
   29  H  4  Y    0.000000  -0.009004   0.000000
   30  H  4  Z    0.001756   0.000000   0.028156

          ------------------------
          MCSCF OPTIMIZED ORBITALS
          ------------------------

                      1          2          3          4          5
                  -15.9872     0.0000     0.0000     0.0000     0.0000
                     A          A          A          A          A   
    1  N  1  S    1.001061  -0.000068  -0.019707  -0.000000  -0.007294
    2  N  1  S   -0.001898   0.399888   0.009312   0.000000  -0.175549
    3  N  1  S   -0.006284   0.328372   0.062006   0.000000  -0.286058
    4  N  1  X    0.000284  -0.001201   0.362399   0.000000   0.057069
    5  N  1  Y   -0.000000  -0.000000  -0.000000   0.485627   0.000000
    6  N  1  Z    0.001218   0.049422  -0.002510  -0.000000   0.594205
    7  N  1  X    0.000177  -0.000209   0.128627  -0.000000   0.071711
    8  N  1  Y   -0.000000   0.000000   0.000000   0.356686   0.000000
    9  N  1  Z   -0.000664   0.023679   0.046983   0.000000   0.382055
   10  N  1 XX    0.000541   0.007959   0.007123   0.000000  -0.010770
   11  N  1 YY   -0.000293  -0.007053  -0.003243  -0.000000  -0.011134
   12  N  1 ZZ   -0.000248  -0.000905  -0.003880   0.000000   0.021905
   13  N  1 XY   -0.000000  -0.000000  -0.000000  -0.016577  -0.000000
   14  N  1 XZ    0.000020  -0.004589   0.021483   0.000000   0.002420
   15  N  1 YZ   -0.000000   0.000000   0.000000   0.025964  -0.000000
   16  H  2  S   -0.001337   0.203742  -0.255095   0.312729   0.119289
   17  H  2  S    0.000268   0.006991  -0.030138   0.156755   0.036106
   18  H  2  X   -0.000567   0.025993  -0.010771   0.032084   0.011389
   19  H  2  Y    0.000392  -0.019963   0.024749   0.002322  -0.012694
   20  H  2  Z    0.000396  -0.009112   0.013784  -0.015534   0.018449
   21  H  3  S   -0.001337   0.203742  -0.255095  -0.312729   0.119289
   22  H  3  S    0.000268   0.006991  -0.030138  -0.156755   0.036106
   23  H  3  X   -0.000567   0.025993  -0.010771  -0.032084   0.011389
   24  H  3  Y   -0.000392   0.019963  -0.024749   0.002322   0.012694
   25  H  3  Z    0.000396  -0.009112   0.013784   0.015534   0.018449
   26  H  4  S   -0.002020   0.202331   0.450854  -0.000000   0.110629
   27  H  4  S    0.000717   0.001011   0.055267   0.000000   0.029305
   28  H  4  X    0.001079  -0.036149  -0.049427   0.000000  -0.009733
   29  H  4  Y   -0.000000   0.000000   0.000000   0.021555   0.000000
   30  H  4  Z    0.000309  -0.002089  -0.006152  -0.000000   0.020228

                      6          7          8          9         10
                    0.0000     0.0000     0.0000     0.0993     0.1927
                     A          A          A          A          A   
    1  N  1  S    0.163733   0.124101   0.000000  -0.073346   0.034878
    2  N  1  S    0.640147   0.325449   0.000000  -0.095730   0.038340
    3  N  1  S    0.259206  -0.115884   0.000000   0.936338  -0.512721
    4  N  1  X   -0.109307   0.947235  -0.000000   0.036310   0.140746
    5  N  1  Y   -0.000000  -0.000000   0.816494   0.000000  -0.000000
    6  N  1  Z    0.580773   0.020134  -0.000000  -0.086159   0.032968
    7  N  1  X   -0.087242   0.173869   0.000000  -0.234130  -0.757468
    8  N  1  Y   -0.000000  -0.000000  -0.068734  -0.000000   0.000000
    9  N  1  Z   -0.020407  -0.086664  -0.000000   0.241321  -0.017587
   10  N  1 XX   -0.049630  -0.024014   0.000000   0.086085  -0.086607
   11  N  1 YY    0.042784  -0.007099  -0.000000  -0.052670   0.041073
   12  N  1 ZZ    0.006846   0.031113  -0.000000  -0.033415   0.045534
   13  N  1 XY   -0.000000  -0.000000   0.055758   0.000000  -0.000000
   14  N  1 XZ    0.028311  -0.038799   0.000000  -0.055456  -0.084496
   15  N  1 YZ   -0.000000  -0.000000  -0.013434  -0.000000   0.000000
   16  H  2  S   -0.423502   0.259743  -0.584251   0.419731   0.158031
   17  H  2  S   -0.061795   0.055525  -0.271017  -0.876623  -0.546691
   18  H  2  X   -0.013886  -0.011413  -0.050892  -0.073750  -0.016531
   19  H  2  Y    0.042867  -0.030331  -0.002027  -0.028623  -0.000557
   20  H  2  Z   -0.019885   0.013785   0.018266   0.034663   0.058755
   21  H  3  S   -0.423502   0.259743   0.584251   0.419731   0.158031
   22  H  3  S   -0.061795   0.055525   0.271017  -0.876623  -0.546691
   23  H  3  X   -0.013886  -0.011413   0.050892  -0.073750  -0.016531
   24  H  3  Y   -0.042867   0.030331  -0.002027   0.028623   0.000557
   25  H  3  Z   -0.019885   0.013785  -0.018266   0.034663   0.058755
   26  H  4  S   -0.475782  -0.715561  -0.000000   0.281361  -0.549897
   27  H  4  S   -0.054681  -0.141322  -0.000000  -0.440005   1.942314
   28  H  4  X    0.053997   0.065983   0.000000   0.055527  -0.138750
   29  H  4  Y   -0.000000  -0.000000  -0.006727   0.000000   0.000000
   30  H  4  Z   -0.006539  -0.027805   0.000000  -0.025695  -0.064326

                     11         12         13         14         15
                    0.2784     0.5249     0.5718     0.6505     0.8850
                     A          A          A          A          A   
    1  N  1  S    0.000000  -0.114762   0.000000   0.036110  -0.644710
    2  N  1  S    0.000000  -0.138473   0.000000   0.026330  -1.437082
    3  N  1  S   -0.000000   0.937493  -0.000000  -0.188271   2.467322
    4  N  1  X    0.000000  -0.196014  -0.000000  -0.413309   0.152417
    5  N  1  Y   -0.049356  -0.000000  -0.720956   0.000000  -0.000000
    6  N  1  Z   -0.000000  -0.696493   0.000000   0.324917   0.269305
    7  N  1  X   -0.000000   0.564317  -0.000000   1.819508  -0.194268
    8  N  1  Y    0.480561   0.000000   1.403575  -0.000000   0.000000
    9  N  1  Z   -0.000000   0.983648  -0.000000  -0.712820  -0.100268
   10  N  1 XX    0.000000  -0.025134   0.000000  -0.011034  -0.043724
   11  N  1 YY   -0.000000   0.000237  -0.000000  -0.012730   0.029869
   12  N  1 ZZ   -0.000000   0.024897  -0.000000   0.023764   0.013855
   13  N  1 XY   -0.087893  -0.000000   0.045681  -0.000000  -0.000000
   14  N  1 XZ    0.000000  -0.016598   0.000000  -0.067458   0.018411
   15  N  1 YZ    0.051807   0.000000  -0.014074   0.000000  -0.000000
   16  H  2  S    0.616190  -0.145774  -0.376379   0.456445  -0.051490
   17  H  2  S   -2.265211  -0.045608  -0.812740   0.349647  -0.359953
   18  H  2  X   -0.014301   0.055839  -0.071784   0.211512   0.012338
   19  H  2  Y    0.131858   0.049559  -0.028878  -0.117323   0.212255
   20  H  2  Z    0.009660   0.143428   0.046734   0.079645   0.141139
   21  H  3  S   -0.616190  -0.145774   0.376379   0.456445  -0.051490
   22  H  3  S    2.265211  -0.045608   0.812740   0.349647  -0.359953
   23  H  3  X    0.014301   0.055839   0.071784   0.211512   0.012338
   24  H  3  Y    0.131858  -0.049559  -0.028878   0.117323  -0.212255
   25  H  3  Z   -0.009660   0.143428  -0.046734   0.079644   0.141139
   26  H  4  S    0.000000  -0.592786   0.000000  -0.460232  -0.180546
   27  H  4  S   -0.000000  -0.379982  -0.000000  -0.681843  -0.556997
   28  H  4  X   -0.000000   0.102440  -0.000000   0.175148   0.109353
   29  H  4  Y   -0.038953  -0.000000   0.093880  -0.000000  -0.000000
   30  H  4  Z    0.000000   0.016154   0.000000  -0.157354   0.166762

                     16         17         18         19         20
                    1.0937     1.1438     1.1682     1.3408     1.4627
                     A          A          A          A          A   
    1  N  1  S    0.013571  -0.000000  -0.226487   0.000000  -0.423837
    2  N  1  S    0.000412  -0.000000  -0.461172   0.000000  -0.925245
    3  N  1  S   -0.099729   0.000000   1.059532  -0.000000   1.212716
    4  N  1  X   -0.055149  -0.000000  -0.270388  -0.000000   0.231270
    5  N  1  Y    0.000000   0.108496  -0.000000   0.090335  -0.000000
    6  N  1  Z   -0.068247   0.000000  -0.001562  -0.000000  -0.117245
    7  N  1  X    0.698051   0.000000   1.336737   0.000000  -0.584223
    8  N  1  Y   -0.000000  -0.466050   0.000000  -0.143554  -0.000000
    9  N  1  Z    0.280250   0.000000   0.131964  -0.000000   0.659191
   10  N  1 XX    0.033941   0.000000   0.021366  -0.000000   0.117254
   11  N  1 YY    0.247298  -0.000000   0.001981  -0.000000  -0.112859
   12  N  1 ZZ   -0.281239   0.000000  -0.023347   0.000000  -0.004395
   13  N  1 XY    0.000000   0.246879  -0.000000  -0.011032  -0.000000
   14  N  1 XZ   -0.060007   0.000000   0.066562   0.000000  -0.040728
   15  N  1 YZ    0.000000   0.231492  -0.000000  -0.319375   0.000000
   16  H  2  S    0.331155   0.223739   0.115305   0.171238  -0.634794
   17  H  2  S    0.029390   0.080393   0.049356  -0.068774   0.005553
   18  H  2  X    0.031771  -0.040753  -0.366957  -0.548167   0.043340
   19  H  2  Y    0.321642   0.004764  -0.218024   0.003774  -0.333333
   20  H  2  Z   -0.427590   0.306440  -0.299035  -0.409074  -0.161635
   21  H  3  S    0.331155  -0.223739   0.115306  -0.171238  -0.634794
   22  H  3  S    0.029390  -0.080393   0.049356   0.068774   0.005553
   23  H  3  X    0.031771   0.040753  -0.366957   0.548167   0.043340
   24  H  3  Y   -0.321642   0.004764   0.218024   0.003774   0.333333
   25  H  3  Z   -0.427590  -0.306440  -0.299035   0.409074  -0.161635
   26  H  4  S   -0.306379  -0.000000  -0.812665  -0.000000  -0.098083
   27  H  4  S   -0.160667  -0.000000  -0.505265  -0.000000  -0.047491
   28  H  4  X    0.067321  -0.000000  -0.089053  -0.000000   0.018463
   29  H  4  Y    0.000000   0.744814  -0.000000   0.341624   0.000000
   30  H  4  Z   -0.303531   0.000000   0.404406   0.000000  -0.673837

                     21         22         23         24         25
                    1.6032     1.7046     1.8768     1.9224     2.1051
                     A          A          A          A          A   
    1  N  1  S    0.000000  -0.057328   0.098558   0.068831   0.000000
    2  N  1  S    0.000000   0.001410   0.192934   0.184662   0.000000
    3  N  1  S   -0.000000   1.182798   0.070950   0.507883  -0.000000
    4  N  1  X   -0.000000  -0.234961   0.547407   0.242904  -0.000000
    5  N  1  Y   -0.141226  -0.000000  -0.000000  -0.000000   0.035419
    6  N  1  Z    0.000000   0.217150  -0.031743   0.048055  -0.000000
    7  N  1  X    0.000000  -0.578194   0.067820   0.203136  -0.000000
    8  N  1  Y   -0.457906   0.000000  -0.000000   0.000000   0.476018
    9  N  1  Z   -0.000000   0.501591  -0.080487   0.321756  -0.000000
   10  N  1 XX    0.000000  -0.104737  -0.224275  -0.167263   0.000000
   11  N  1 YY   -0.000000   0.260750   0.592028  -0.585925  -0.000000
   12  N  1 ZZ    0.000000  -0.156013  -0.367753   0.753188  -0.000000
   13  N  1 XY   -0.134489   0.000000   0.000000  -0.000000   0.392183
   14  N  1 XZ    0.000000   0.127618  -0.121383  -0.156613   0.000000
   15  N  1 YZ    0.319062   0.000000   0.000000   0.000000   0.853738
   16  H  2  S   -0.099720  -0.292537  -0.089447  -0.024544  -0.101933
   17  H  2  S    0.430870  -0.352308   0.146637  -0.018686  -0.274360
   18  H  2  X    0.369441  -0.631203   0.143796  -0.171635  -0.467919
   19  H  2  Y   -0.013195   0.078823  -0.273616   0.133434  -0.006640
   20  H  2  Z   -0.595664   0.338756  -0.086614  -0.266320  -0.177314
   21  H  3  S    0.099720  -0.292537  -0.089447  -0.024544   0.101933
   22  H  3  S   -0.430870  -0.352308   0.146637  -0.018685   0.274360
   23  H  3  X   -0.369441  -0.631203   0.143796  -0.171635   0.467919
   24  H  3  Y   -0.013195  -0.078823   0.273616  -0.133434  -0.006640
   25  H  3  Z    0.595664   0.338756  -0.086614  -0.266320   0.177314
   26  H  4  S   -0.000000   0.024217   0.023425  -0.173397   0.000000
   27  H  4  S   -0.000000  -0.012914  -0.337159  -0.347895   0.000000
   28  H  4  X   -0.000000   0.344095   0.783311   0.751801  -0.000000
   29  H  4  Y    0.502193  -0.000000   0.000000  -0.000000  -0.603573
   30  H  4  Z    0.000000  -0.573044   0.401490  -0.049270   0.000000

                     26         27         28         29
                    2.2525     2.6083     2.7451     2.8688
                     A          A          A          A   
    1  N  1  S   -0.000000   0.160977  -0.000000  -0.057427
    2  N  1  S   -0.000000   0.268974  -0.000000   0.050822
    3  N  1  S    0.000000  -0.554016   0.000000   2.100884
    4  N  1  X   -0.000000   0.430998   0.000000   0.365659
    5  N  1  Y    0.076664  -0.000000  -0.203180   0.000000
    6  N  1  Z   -0.000000  -0.055166   0.000000   0.242298
    7  N  1  X   -0.000000   1.418470  -0.000000   0.390332
    8  N  1  Y   -0.160945  -0.000000  -0.398185   0.000000
    9  N  1  Z    0.000000  -0.278155   0.000000   0.332515
   10  N  1 XX    0.000000   0.095428   0.000000   1.463113
   11  N  1 YY   -0.000000  -0.109695  -0.000000  -0.719059
   12  N  1 ZZ   -0.000000   0.014268  -0.000000  -0.744055
   13  N  1 XY    0.377497   0.000000   1.156563  -0.000000
   14  N  1 XZ   -0.000000   1.310494  -0.000000  -0.143914
   15  N  1 YZ   -0.125583  -0.000000  -0.459561   0.000000
   16  H  2  S   -0.624597   0.674648   0.917956  -0.385397
   17  H  2  S   -0.281251   0.256979   0.356512  -0.123997
   18  H  2  X    0.192257   0.470567   0.625616  -0.280036
   19  H  2  Y    1.272044  -0.173658  -0.658585   0.201240
   20  H  2  Z   -0.141262  -0.209864  -0.415438   0.292258
   21  H  3  S    0.624597   0.674648  -0.917956  -0.385396
   22  H  3  S    0.281251   0.256979  -0.356512  -0.123997
   23  H  3  X   -0.192257   0.470567  -0.625616  -0.280036
   24  H  3  Y    1.272044   0.173658  -0.658585  -0.201240
   25  H  3  Z    0.141262  -0.209864   0.415438   0.292258
   26  H  4  S    0.000000  -0.844419  -0.000000  -1.466528
   27  H  4  S    0.000000  -0.378154  -0.000000  -0.426623
   28  H  4  X   -0.000000   0.650063   0.000000   1.146425
   29  H  4  Y   -0.088273  -0.000000  -0.322477   0.000000
   30  H  4  Z   -0.000000  -0.195024   0.000000   0.447141
 .....DONE WITH MCSCF ITERATIONS.....
 CPU     0: STEP CPU TIME=    11.94 TOTAL CPU TIME=         12.8 (      0.2 MIN)
 TOTAL WALL CLOCK TIME=         12.8 SECONDS, CPU UTILIZATION IS    99.92%

     ----------------------------------------------------------------
     PROPERTY VALUES FOR THE MCSCF SELF-CONSISTENT FIELD WAVEFUNCTION
     ----------------------------------------------------------------

          -----------------
          ENERGY COMPONENTS
          -----------------

         WAVEFUNCTION NORMALIZATION =       1.0000000000

                ONE ELECTRON ENERGY =     -93.4028449576
                TWO ELECTRON ENERGY =      26.7688405393
           NUCLEAR REPULSION ENERGY =      10.9638534249
                                      ------------------
                       TOTAL ENERGY =     -55.6701509934

 ELECTRON-ELECTRON POTENTIAL ENERGY =      26.7688405393
  NUCLEUS-ELECTRON POTENTIAL ENERGY =    -149.0658356586
   NUCLEUS-NUCLEUS POTENTIAL ENERGY =      10.9638534249
                                      ------------------
             TOTAL POTENTIAL ENERGY =    -111.3331416943
               TOTAL KINETIC ENERGY =      55.6629907009
                 VIRIAL RATIO (V/T) =       2.0001286365

          ---------------------------------------
          MULLIKEN AND LOWDIN POPULATION ANALYSES
          ---------------------------------------

     ATOMIC MULLIKEN POPULATION IN EACH MOLECULAR ORBITAL

                      1          2          3          4          5

                  2.000000   1.977536   1.654886   1.647220   1.634581

    1             2.000578   1.371209   1.217152   1.070436   1.259953
    2            -0.000128   0.214950   0.037791   0.234796   0.182801
    3            -0.000128   0.214950   0.037791   0.234796   0.182801
    4            -0.000322   0.176428   0.362152   0.107192   0.009028

                      6          7          8

                  0.036151   0.031269   0.018357

    1             0.018727   0.013328   0.009620
    2             0.007502   0.008985   0.000306
    3             0.007502   0.008985   0.000306
    4             0.002421  -0.000027   0.008125
 WARNING! MCSCF POPULATIONS SHOWN ABOVE ARE FOR THE NATURAL ORBITALS.
 IGNORE THE ABOVE DATA FOR MCSCF FUNCTIONS WHICH ARE NOT OF -FORS- TYPE.
 THE FOLLOWING POPULATIONS ARE CORRECT FOR ANY MCSCF WAVEFUNCTION.

               ----- POPULATIONS IN EACH AO -----
                             MULLIKEN      LOWDIN
              1  N  1  S      2.00221     1.90400
              2  N  1  S      0.81723     0.58214
              3  N  1  S      0.72004     0.41673
              4  N  1  X      0.59967     0.51815
              5  N  1  Y      0.79159     0.73793
              6  N  1  Z      0.81939     0.77366
              7  N  1  X      0.20835     0.36201
              8  N  1  Y      0.47608     0.51772
              9  N  1  Z      0.51299     0.55181
             10  N  1 XX      0.00029     0.19478
             11  N  1 YY      0.00207     0.14956
             12  N  1 ZZ      0.00223     0.14392
             13  N  1 XY      0.00549     0.00623
             14  N  1 XZ      0.00338     0.01317
             15  N  1 YZ      0.00000     0.00385
             16  H  2  S      0.56887     0.42430
             17  H  2  S      0.06388     0.15429
             18  H  2  X      0.02129     0.03496
             19  H  2  Y      0.01907     0.05811
             20  H  2  Z      0.01390     0.02919
             21  H  3  S      0.56887     0.42430
             22  H  3  S      0.06388     0.15429
             23  H  3  X      0.02129     0.03496
             24  H  3  Y      0.01907     0.05811
             25  H  3  Z      0.01390     0.02919
             26  H  4  S      0.58475     0.45283
             27  H  4  S      0.02408     0.14629
             28  H  4  X      0.03722     0.06746
             29  H  4  Y      0.00900     0.02663
             30  H  4  Z      0.00994     0.02945

          ----- MULLIKEN ATOMIC OVERLAP POPULATIONS -----
          (OFF-DIAGONAL ELEMENTS NEED TO BE MULTIPLIED BY 2)

             1           2           3           4

    1    6.2097019
    2    0.2220669   0.4668925
    3    0.2220669   0.0025670   0.4668925
    4    0.3071669  -0.0045249  -0.0045249   0.3668773

          TOTAL MULLIKEN AND LOWDIN ATOMIC POPULATIONS
       ATOM         MULL.POP.    CHARGE          LOW.POP.     CHARGE
    1 N             6.961003    0.038997         6.875663    0.124337
    2 H             0.687002    0.312998         0.700842    0.299158
    3 H             0.687002    0.312998         0.700843    0.299157
    4 H             0.664994    0.335006         0.722652    0.277348

          MULLIKEN SPHERICAL HARMONIC POPULATIONS
       ATOM           S       P       D      F      G      H      I    TOTAL
    1 N             3.54    3.41    0.01   0.00   0.00   0.00   0.00    6.96
    2 H             0.63    0.05    0.00   0.00   0.00   0.00   0.00    0.69
    3 H             0.63    0.05    0.00   0.00   0.00   0.00   0.00    0.69
    4 H             0.61    0.06    0.00   0.00   0.00   0.00   0.00    0.66

          ---------------------
          ELECTROSTATIC MOMENTS
          ---------------------

 POINT   1           X           Y           Z (BOHR)    CHARGE
                -0.000005   -0.000000   -0.177185        1.00 (A.U.)
         DX          DY          DZ         /D/  (DEBYE)
    -0.958423   -0.000000    2.193752    2.393976
 ...... END OF PROPERTY EVALUATION ......
 CPU     0: STEP CPU TIME=     0.01 TOTAL CPU TIME=         12.8 (      0.2 MIN)
 TOTAL WALL CLOCK TIME=         12.8 SECONDS, CPU UTILIZATION IS    99.92%

     -------------------------------------------------
     GMC-PT/GMC-QDPT or general MCSCF input parameters
     -------------------------------------------------
 # of frozen core orbs. =         0 ->         0
 # of doubly occ. orbs. =         1
 # of active      orbs. =         7
 # of virtual     orbs. =        21
 # of active electrons  =         7
 # of states in CI      =         3
 Highest state in CI    =         3
 kstate =  1 1 1
 avecoe =  0.333 0.333 0.333
 State symmetry           = A           
 Assigned symmetry number = 1

 <<<Act. MO sym.: 1111111

 <<<Division of 1-ext.:  0
 <<<Division of 2-ext.:  0

     ------------------------
     Orbital canonicalization
     ------------------------

 MOs are canonicalized for core, virtual, and invariant-active orbital spaces.
 This is a part of the GMC-QDPT calculation.
 SCHWARZ INEQUALITY OVERHEAD:       465 INTEGRALS, T=        0.00
 DIRECT TRANSFORMATION SKIPS AO INTEGRAL STORAGE ON DISK.

 Averaged energy =     -55.670150993

 State #    1  Energy =     -55.798573151  S =  0.500
 State #    2  Energy =     -55.739566164  S =  0.500
 State #    3  Energy =     -55.472313665  S =  0.500

 Orbital energies for filled orbital space
  -15.987187
 Orbital energies for active orbital space
   -1.489203  -1.030092  -0.755750  -0.732732   0.081222
    0.412168   0.206829
 Orbital energies for external orbital space
    0.099302   0.192686   0.278424   0.524864   0.571834
    0.650541   0.884953   1.093699   1.143756   1.168247
    1.340818   1.462694   1.603155   1.704620   1.876831
    1.922435   2.105119   2.252474   2.608325   2.745143
    2.868806

 Zero values mean non-canonical orbitals.
 ... done with orbital canonicalization ...
 CPU     0: STEP CPU TIME=     0.66 TOTAL CPU TIME=         13.5 (      0.2 MIN)
 TOTAL WALL CLOCK TIME=         13.5 SECONDS, CPU UTILIZATION IS   100.00%

     --------------------------------------------
     PARTIAL TWO ELECTRON INTEGRAL TRANSFORMATION
     --------------------------------------------

 NUMBER OF CORE MOLECULAR ORBITALS     =    0
 NUMBER OF OCCUPIED MOLECULAR ORBITALS =    8
 TOTAL NUMBER OF MOLECULAR ORBITALS    =   29
 TOTAL NUMBER OF ATOMIC ORBITALS       =   30
 THRESHOLD FOR KEEPING TRANSFORMED 2E- INTEGRALS = 1.000E-09
 AO INTEGRALS WILL BE CALCULATED IN DIRECT MODE...
 DIRECT TRANSFORMATION SKIPS AO INTEGRAL STORAGE ON DISK.
 SCHWARZ INEQUALITY OVERHEAD:       465 INTEGRALS, T=        0.00

 PLAN A: REQUIREMENTS FOR FULLY IN-MEMORY TRANSFORMATION:
 # OF WORDS AVAILABLE =            100000000
 # OF WORDS NEEDED    =               221798

 PARALLEL ONLY WORKS WITH THE SEGMENTED ALGORITHM.
 ADJUSTING MEMORY TO USE SEGMENTED ALGORITHM.


 PLAN B: REQUIREMENTS FOR THE SEGMENTED TRANSFORMATION:
       MINIMUM=         124148 WORDS FOR 1 MOLECULAR ORBITAL PER PASS
       MAXIMUM=         221798 WORDS FOR ALL MOLECULAR ORBITALS IN 1 PASS
              (          13950 EXTRA WORDS INCLUDES 1 EXTRA ORBITAL/PASS)
 THIS RUN USES=         221798 WORDS,
 DISTRIBUTING   1 PASSES EACH CONTAINING     8 ORBITALS OVER   1 PROCESSORS.

 CHOOSING SEGMENTED PARTIAL TRANSFORMATION...
 DIRECT TRANSFORMATION SKIPS AO INTEGRAL STORAGE ON DISK.
 PASS #   1 TOOK        0.04 SECONDS.
 TOTAL NUMBER OF TRANSFORMED 2E- INTEGRALS KEPT =        18997
 ... END OF INTEGRAL TRANSFORMATION ...
 CPU     0: STEP CPU TIME=     0.04 TOTAL CPU TIME=         13.5 (      0.2 MIN)
 TOTAL WALL CLOCK TIME=         13.5 SECONDS, CPU UTILIZATION IS    99.93%

     --------     ------------------------------------------
     GMC-QDPT     Program written by H.Nakano (Kyushu Univ.)
     --------     ------------------------------------------

 *** Reference space

 Reference type: ORMAS (= Occupation restricted multiple active space)
 # of orbitals          =  7
 # of minimum electrons =  7
 # of maximum electrons =  7
 State symmetry    =    1 (input)
 2*Sz              =    1 (input)
 Spin multiplicity =    2 (input)
 Dimension of reference space =      1225  (from      3432 walks)

 Dimension of reference space =      1225  (from      1225 walks)

 <<<Ionized spaces for Ref-CI:
      0:         1225 /   -1-0:         1960 /  0-1-0:         2891

 ***                    ***
 *** Reference space CI ***
 ***                    ***

 Converged after   36 iterations

 Reference wavefunctions:

 State #    1  Energy =     -55.798573151  S =  0.500

      Det      Coef    Occupancy (Ignoring core)
      ---      ----    --------- --------- -----
        1    0.974032  11110001110000
      393    0.054487  10110101010010
      717    0.087750  11010011100001

 State #    2  Energy =     -55.739566164  S =  0.500

      Det      Coef    Occupancy (Ignoring core)
      ---      ----    --------- --------- -----
       36    0.980567  11110001101000
      463    0.054518  10110101001010

 State #    3  Energy =     -55.472313665  S =  0.500

      Det      Coef    Occupancy (Ignoring core)
      ---      ----    --------- --------- -----
       38    0.070943  11011001101000
       71    0.968571  11110001011000
      122    0.058155  11010010111000
      822   -0.090537  11010011001001

 Davidson method: CPU/Wall time =           0.56 /           0.55 sec.

 Oscillator strength (invalid if E(1)/=E(GS)):
 -----------------------------------------
   State                        f
 -----------------------------------------
     2     F(REF-CI)=        0.0002375464
     3     F(REF-CI)=        0.0071751033
 -----------------------------------------

 Dipole moment matrix elements, x, y, z, in A.U.

 Dimension of ionized spaces for PT:
 (N-2) space:         1715 /  (N-1) space:         2842 /  N space:         2891
 (N+1) space:         2842 /  (N+2) space:         1715

 <<<Ionized spaces for internal:
         0:         1225 /      -1-0:         1960 /     0-1-0:         2891
  -1-0-1-0:         2842 / 0-1-0-1-0:         3381

 Diagonal elements of averaged one-particle density matrix:
       2       3       4       5       6       7       8
  0.9919  0.9859  0.9813  0.9901  0.0213  0.0107  0.0188
  0.9855  0.6646  0.6532  0.6615  0.0149  0.0078  0.0126

 Orbital energies:
 -------- Doubly-occupied orbitals (highest several orbs.) -------
             1
 -1.598719D+01
 -------- Active orbitals ----------------------------------------
             2            3            4            5            6
 -1.489203D+00-1.030092D+00-7.557502D-01-7.327320D-01 8.122233D-02
             7            8
  4.121675D-01 2.068288D-01
 -------- External orbitals (lowest several orbs.) ---------------
             9           10           11           12           13
  9.930152D-02 1.926857D-01 2.784242D-01 5.248642D-01 5.718337D-01
            14           15           16           17           18
  6.505408D-01 8.849531D-01 1.093699D+00 1.143756D+00 1.168247D+00

 *** Quasi-degeneracy checking

 === Det (|Ci| > 1.0D-01 and dE < 5.0D-03)

 # of small denominators (single excitations)
 State       dEmin  dE < 5.0D-03  dE < 5.0D-04  dE < 5.0D-05  dE < 5.0D-06
 ----- ----------- ------------- ------------- ------------- -------------
     1    5.00D-03             0             0             0             0
     2    5.00D-03             0             0             0             0
     3    5.00D-03             0             0             0             0

 # of small denominators (double excitations)
 State       dEmin  dE < 5.0D-03  dE < 5.0D-04  dE < 5.0D-05  dE < 5.0D-06
 ----- ----------- ------------- ------------- ------------- -------------
     1    5.00D-03             0             0             0             0
     2    5.00D-03             0             0             0             0
     3    5.00D-03             0             0             0             0

 *** Zeroth-Order Setup (Granovsky's zeroth-order vectors)
 Zeroth-order effective Hamiltonian
  (= Sum_i e(i)*<I|a+(i)a(i)|J> ):
                   1            2            3
     1 -7.173188D+00
     2  1.817438D-09-7.171438D+00
     3  1.733904D-03 1.895593D-10-6.875104D+00

 Zeroth-order vectors:
 State #    1
       MC st            1           3           2
       Coeff   -1.000D+00   5.817D-03   1.032D-06
 State #    2
       MC st            2           1           3
       Coeff   -1.000D+00  -1.032D-06   6.680D-09
 State #    3
       MC st            3           1           2
       Coeff    1.000D+00   5.817D-03   6.753D-10

 *** GMC-QDPT computation

 (Integral reading:  CPU/Wall time =           0.00 /           0.00 sec.)

 One-external:
   0 -ionized terms: CPU/Wall time =           0.03 /           0.03 sec.
 (-1)-ionized terms: CPU/Wall time =           0.11 /           0.10 sec.
 (+1)-ionized terms: CPU/Wall time =           0.02 /           0.02 sec.
 (+1)-ionized terms: CPU/Wall time =           0.01 /           0.01 sec.
 (+2)-ionized terms: CPU/Wall time =           0.00 /           0.00 sec.

 Internal:
 # of macro loops for internal contribution =         1 (input)
 Loop:    1
 Dimension of internal CISD space     =         0  (after screening)
 Space construction: CPU/Wall time =           0.02 /           0.02 sec.
 Internal terms:     CPU/Wall time =           0.00 /           0.00 sec.

 Two-external:
   0 -ionized terms: CPU/Wall time =           0.02 /           0.02 sec.
 (-1)-ionized terms: CPU/Wall time =           0.31 /           0.32 sec.
 (-2)-ionized terms: CPU/Wall time =           0.18 /           0.18 sec.

 Total time:         CPU/Wall time =           0.70 /           0.70 sec.

 ***                  ***
 *** GMC-QDPT Results ***
 ***                  ***

 Diagonal elements of effective Hamiltonian:
 Heff(  1) =   -55.89830307
 Heff(  2) =   -55.84593742
 Heff(  3) =   -55.58403757

 Off-diagonal elements of effective Hamiltonian:
                   1            2
     2 -5.371098D-08
     3  2.468278D-03 2.492946D-09

 ******** GMC-QDPT energies ********
 ----------------------------------------------------------------------------
   State                        1st order                           2nd order
 ----------------------------------------------------------------------------
     1     E(REF-CI)=      -55.7985731512   E(GMC-QDPT2)=      -55.8983224529
     2     E(REF-CI)=      -55.7395661644   E(GMC-QDPT2)=      -55.8459374189
     3     E(REF-CI)=      -55.4723136647   E(GMC-QDPT2)=      -55.5840181803
 ----------------------------------------------------------------------------

 Excitation energies (invalid if E(1)/=E(GS)):
 ----------------------------------------------------------------------------
   State                        1st order                           2nd order
 ----------------------------------------------------------------------------

     TZ Sorted GMC-PT ENERGIES:
         1      -55.8983224529
         2      -55.8459374189
         3      -55.5840181803
     2     E(REF-CI)=        1.6056627 eV   E(GMC-QDPT2)=        1.4254701 eV
     3     E(REF-CI)=        8.8779774 eV   E(GMC-QDPT2)=        8.5526593 eV
 ----------------------------------------------------------------------------

 Main characters of perturbed GMC-QDPT states:

 State #    1  Energy =     -55.898322453  S =  0.500

      Det      Coef    Occupancy (Ignoring core)
      ---      ----    --------- --------- -----
        1    0.974004  11110001110000
      393    0.054442  10110101010010
      717    0.087740  11010011100001

 State #    2  Energy =     -55.845937419  S =  0.500

      Det      Coef    Occupancy (Ignoring core)
      ---      ----    --------- --------- -----
       36    0.980567  11110001101000
      463    0.054518  10110101001010

 State #    3  Energy =     -55.584018180  S =  0.500

      Det      Coef    Occupancy (Ignoring core)
      ---      ----    --------- --------- -----
       38    0.070973  11011001101000
       71    0.968542  11110001011000
      122    0.058198  11010010111000
      822   -0.090539  11010011001001

 <<<Max |V/de| = 3.139D-02  Thresh = 1.000D+00

 Oscillator strength (invalid if E(1)/=E(GS)):
 ----------------------------------------------------------------------------
   State                        1st order                           2nd order
 ----------------------------------------------------------------------------
     2     F(REF-CI)=        0.0002375464     F(GMC-PT2)=        0.0002117105
     3     F(REF-CI)=        0.0071751033     F(GMC-PT2)=        0.0069825283
 ----------------------------------------------------------------------------

 Dipole moment matrix elements, x, y, z, in A.U.
States    1    1       -0.4207597190        0.0000000000        0.7059664413
States    1    2       -0.0000000038       -0.0778597958        0.0000000238
States    1    3       -0.1625045565        0.0000000045       -0.0831625192
States    2    1       -0.0000000038       -0.0778597958        0.0000000238
States    2    2       -0.2752733673       -0.0000000313        0.2858559130
States    2    3       -0.0000000000       -0.0742361181       -0.0000000030
States    3    1       -0.1625045565        0.0000000045       -0.0831625192
States    3    2       -0.0000000000       -0.0742361181       -0.0000000030
States    3    3       -0.6857600911       -0.0000000102        0.2308603423

 Oscillator strength (valid only when positive): 
 ----------------------------------------------------------------------------
  States                        1st order                           2nd order
 ----------------------------------------------------------------------------
  1  1     F(REF-CI)=        0.0000000000     F(GMC-PT2)=        0.0000000000
  1  2     F(REF-CI)=       -0.0002375464     F(GMC-PT2)=       -0.0002117105
  1  3     F(REF-CI)=       -0.0071751033     F(GMC-PT2)=       -0.0069825283
  2  1     F(REF-CI)=        0.0002375464     F(GMC-PT2)=        0.0002117105
  2  2     F(REF-CI)=        0.0000000000     F(GMC-PT2)=        0.0000000000
  2  3     F(REF-CI)=       -0.0009860815     F(GMC-PT2)=       -0.0009622915
  3  1     F(REF-CI)=        0.0071751033     F(GMC-PT2)=        0.0069825283
  3  2     F(REF-CI)=        0.0009860815     F(GMC-PT2)=        0.0009622915
  3  3     F(REF-CI)=        0.0000000000     F(GMC-PT2)=        0.0000000000
 CPU     0: STEP CPU TIME=     1.32 TOTAL CPU TIME=         14.9 (      0.2 MIN)
 TOTAL WALL CLOCK TIME=         14.9 SECONDS, CPU UTILIZATION IS    99.93%

     !!! DIABATIZATION FOR REF CI STATES !!!

 *******************************************************
          $DMO GROUP FOUND IN THE INPUT.
        DIABATIZATION OF ADIABATIC STATES BEGINS.
     PROGRAMMED BY TAO ZENG (CARLETON UNIVERSITY).
               Email: toby.zeng@carleton.ca
     See T. Zeng, J. Chem. Phys. 2017, 146, 144103
 *******************************************************

 *************************************************************************
     STEP 1: TRANSFORMATION OF ADIABATIC STATES TO THE DMO REPRESENTATION
         See Atchity and Ruedenberg, J. Chem. Phys. 1999, 111, 2910
 *************************************************************************

Read in Diabatic Molecualr Orbitals:

                      1          2          3          4          5

    1  N  1  S    0.008609   0.000000   0.000000  -0.013219   0.279491
    2  N  1  S    0.442914  -0.000000   0.000000  -0.184329   0.867803
    3  N  1  S    0.276913   0.000000  -0.000000  -0.288315   0.144236
    4  N  1  X   -0.000000   0.493155  -0.024636  -0.000000  -0.000000
    5  N  1  Y    0.000000   0.024636   0.493155  -0.000000   0.000000
    6  N  1  Z    0.090197   0.000000   0.000000   0.593421   0.705309
    7  N  1  X   -0.000000   0.210628  -0.010522   0.000000   0.000000
    8  N  1  Y    0.000000   0.010522   0.210628  -0.000000  -0.000000
    9  N  1  Z   -0.004381   0.000000   0.000000   0.381592  -0.106092
   10  N  1 XX   -0.000457   0.010719  -0.000535  -0.012387   0.006153
   11  N  1 YY   -0.000457  -0.010719   0.000535  -0.012387   0.006153
   12  N  1 ZZ    0.000914  -0.000000   0.000000   0.024773  -0.012306
   13  N  1 XY    0.000000  -0.000618  -0.012377  -0.000000   0.000000
   14  N  1 XZ   -0.000000   0.026529  -0.001325  -0.000000   0.000000
   15  N  1 YZ    0.000000   0.001325   0.026529  -0.000000   0.000000
   16  H  2  S    0.194462  -0.176074   0.343485   0.112865  -0.523343
   17  H  2  S    0.003574  -0.023812   0.046452   0.024014  -0.054445
   18  H  2  X    0.018760   0.009101   0.022834   0.009336  -0.039151
   19  H  2  Y   -0.032493   0.022287  -0.020044  -0.016171   0.067811
   20  H  2  Z   -0.009251   0.008464  -0.016511   0.018769  -0.010566
   21  H  3  S    0.194462  -0.209430  -0.324227   0.112865  -0.523343
   22  H  3  S    0.003574  -0.028322  -0.043847   0.024014  -0.054445
   23  H  3  X    0.018760   0.006781  -0.023627   0.009336  -0.039151
   24  H  3  Y    0.032493  -0.024174  -0.017723   0.016171  -0.067811
   25  H  3  Z   -0.009251   0.010067   0.015585   0.018769  -0.010566
   26  H  4  S    0.194462   0.385503  -0.019258   0.112865  -0.523343
   27  H  4  S    0.003574   0.052134  -0.002604   0.024014  -0.054445
   28  H  4  X   -0.037519  -0.032295   0.001613  -0.018672   0.078302
   29  H  4  Y    0.000000   0.001067   0.021353  -0.000000   0.000000
   30  H  4  Z   -0.009251  -0.018530   0.000926   0.018769  -0.010566

                      6          7

    1  N  1  S    0.000000  -0.000000
    2  N  1  S    0.000000  -0.000000
    3  N  1  S   -0.000000   0.000000
    4  N  1  X   -0.930415  -0.002083
    5  N  1  Y   -0.002083   0.930415
    6  N  1  Z   -0.000000   0.000000
    7  N  1  X   -0.046866  -0.000105
    8  N  1  Y   -0.000105   0.046866
    9  N  1  Z   -0.000000   0.000000
   10  N  1 XX    0.001538   0.000003
   11  N  1 YY   -0.001538  -0.000003
   12  N  1 ZZ   -0.000000   0.000000
   13  N  1 XY   -0.000004   0.001776
   14  N  1 XZ    0.039985   0.000090
   15  N  1 YZ    0.000090  -0.039985
   16  H  2  S   -0.362630  -0.631354
   17  H  2  S   -0.065964  -0.114846
   18  H  2  X    0.002763  -0.037520
   19  H  2  Y    0.037435   0.040736
   20  H  2  Z    0.001882   0.003276
   21  H  3  S   -0.365454   0.629724
   22  H  3  S   -0.066477   0.114549
   23  H  3  X    0.002595   0.037532
   24  H  3  Y   -0.037617   0.040567
   25  H  3  Z    0.001896  -0.003268
   26  H  4  S    0.728084   0.001630
   27  H  4  S    0.132441   0.000297
   28  H  4  X   -0.062317  -0.000140
   29  H  4  Y    0.000055  -0.024345
   30  H  4  Z   -0.003778  -0.000008

NUMBER OF SUB ACTIVE SPACES:   1
ROTATE ACTIVE MOS TO DMOS IN EACH SUB-SPACE

SPACE  1:

OVERLAP BETWEEN ORTHONORMAL AND PRE-ORTHONORMAL REF. DMOS

             1           2           3           4           5

    1    0.9747838  -0.0173317   0.0008658  -0.0095679  -0.0077815
    2   -0.0173317   1.0526969  -0.0107098  -0.0428455   0.0914336
    3    0.0008658  -0.0107098   0.8388451   0.0021404  -0.0045676
    4   -0.0095679  -0.0428455   0.0021404   0.9919071  -0.0106679
    5   -0.0077815   0.0914336  -0.0045676  -0.0106679   1.1870396
    6    0.0006322   0.0713765  -0.0038481  -0.0694099   0.1012569
    7    0.0000014   0.0064449   0.1258054  -0.0001554   0.0002267

             6           7

    1    0.0006322   0.0000014
    2    0.0713765   0.0064449
    3   -0.0038481   0.1258054
    4   -0.0694099  -0.0001554
    5    0.1012569   0.0002267
    6    1.0477718   0.0000062
    7    0.0000062   1.0449805
REFERENCE DMOS AFTER ORTHONORMALIZATION:

                      1          2          3          4          5

    1  N  1  S    0.010276  -0.019565   0.000977  -0.013089   0.238842
    2  N  1  S    0.457527  -0.058998   0.002947  -0.181584   0.743826
    3  N  1  S    0.281966  -0.015894   0.000794  -0.289416   0.124568
    4  N  1  X    0.009883   0.526425  -0.026298  -0.041805   0.038408
    5  N  1  Y    0.000000   0.023131   0.463034  -0.000000  -0.000000
    6  N  1  Z    0.102837  -0.025028   0.001250   0.603494   0.603630
    7  N  1  X    0.003653   0.205070  -0.010244   0.004784  -0.010874
    8  N  1  Y    0.000000   0.012441   0.249033   0.000000  -0.000000
    9  N  1  Z   -0.001059   0.021337  -0.001066   0.386950  -0.090359
   10  N  1 XX   -0.000386   0.009326  -0.000466  -0.012068   0.004386
   11  N  1 YY   -0.000745  -0.011104   0.000555  -0.013061   0.006103
   12  N  1 ZZ    0.001130   0.001778  -0.000089   0.025129  -0.010489
   13  N  1 XY   -0.000000  -0.000764  -0.015297  -0.000000   0.000000
   14  N  1 XZ    0.000386   0.023241  -0.001161   0.003566  -0.004941
   15  N  1 YZ    0.000000   0.001902   0.038078   0.000000   0.000000
   16  H  2  S    0.195133  -0.096386   0.503882   0.085458  -0.404345
   17  H  2  S    0.003279  -0.013046   0.072458   0.019109  -0.039528
   18  H  2  X    0.019261   0.012520   0.033170   0.010104  -0.034094
   19  H  2  Y   -0.032802   0.012954  -0.029606  -0.013406   0.053221
   20  H  2  Z   -0.009201   0.009064  -0.020478   0.019398  -0.009851
   21  H  3  S    0.195133  -0.146124  -0.491767   0.085458  -0.404345
   22  H  3  S    0.003279  -0.020202  -0.070797   0.019109  -0.039528
   23  H  3  X    0.019261   0.009152  -0.034252   0.010104  -0.034094
   24  H  3  Y    0.032802  -0.015841  -0.028168   0.013406  -0.053221
   25  H  3  Z   -0.009201   0.011060   0.019472   0.019398  -0.009851
   26  H  4  S    0.203181   0.372893  -0.018628   0.177438  -0.529206
   27  H  4  S    0.004285   0.047328  -0.002364   0.034840  -0.060380
   28  H  4  X   -0.038709  -0.034235   0.001710  -0.024496   0.073752
   29  H  4  Y    0.000000   0.001474   0.029502   0.000000   0.000000
   30  H  4  Z   -0.009664  -0.016332   0.000816   0.018002  -0.007493

                      6          7

    1  N  1  S   -0.022619  -0.000051
    2  N  1  S   -0.080159  -0.000180
    3  N  1  S   -0.030295  -0.000068
    4  N  1  X   -0.930439  -0.002084
    5  N  1  Y   -0.001869   0.834479
    6  N  1  Z   -0.016709  -0.000037
    7  N  1  X   -0.057371  -0.000128
    8  N  1  Y   -0.000033   0.014791
    9  N  1  Z    0.032909   0.000074
   10  N  1 XX   -0.000392  -0.000001
   11  N  1 YY   -0.002164  -0.000005
   12  N  1 ZZ    0.002556   0.000006
   13  N  1 XY   -0.000008   0.003546
   14  N  1 XZ    0.037288   0.000084
   15  N  1 YZ    0.000096  -0.042860
   16  H  2  S   -0.293056  -0.664144
   17  H  2  S   -0.056717  -0.118533
   18  H  2  X    0.005859  -0.039966
   19  H  2  Y    0.028725   0.042453
   20  H  2  Z    0.003346   0.005550
   21  H  3  S   -0.296028   0.662825
   22  H  3  S   -0.057247   0.118278
   23  H  3  X    0.005680   0.039992
   24  H  3  Y   -0.028915   0.042324
   25  H  3  Z    0.003371  -0.005535
   26  H  4  S    0.732192   0.001640
   27  H  4  S    0.131310   0.000294
   28  H  4  X   -0.065864  -0.000147
   29  H  4  Y    0.000060  -0.026858
   30  H  4  Z   -0.000568  -0.000001

 -------------------------------------------
       MAXIMIZING MORMO OVERLAP TERM        
 -------------------------------------------
   SWEEP    VALUE       PROGRESS
     0     6.40660
     1     6.93379     0.52718997
     2     6.93469     0.00090376
     3     6.93469     0.00000000
     4     6.93469     0.00000000
     5     6.93469     0.00000000
 THE ROTATION IS DONE
ACTIVE ORBITALS AFTER MORMO:

                      1          2          3          4          5

    1  N  1  S    0.008918  -0.021693   0.001084  -0.012439   0.175419
    2  N  1  S    0.431906  -0.040065   0.002001  -0.190124   0.655755
    3  N  1  S    0.335791  -0.011875   0.000593  -0.273804   0.233855
    4  N  1  X    0.014682   0.515724  -0.025762  -0.043578   0.055691
    5  N  1  Y    0.000000   0.019722   0.394771  -0.000000   0.000000
    6  N  1  Z    0.086758  -0.042152   0.002106   0.606313   0.562392
    7  N  1  X    0.001762   0.167299  -0.008357   0.048505  -0.050060
    8  N  1  Y    0.000000   0.018061   0.361549  -0.000000   0.000000
    9  N  1  Z    0.028438   0.055777  -0.002786   0.384919  -0.033321
   10  N  1 XX    0.005225   0.008921  -0.000446  -0.010500  -0.051471
   11  N  1 YY   -0.005311  -0.010215   0.000510  -0.008929   0.041337
   12  N  1 ZZ    0.000086   0.001294  -0.000065   0.019429   0.010133
   13  N  1 XY   -0.000000  -0.001121  -0.022433   0.000000  -0.000000
   14  N  1 XZ   -0.003215   0.011657  -0.000582   0.005917   0.025271
   15  N  1 YZ    0.000000   0.001360   0.027221  -0.000000   0.000000
   16  H  2  S    0.182625  -0.133844   0.380734   0.089793  -0.422366
   17  H  2  S    0.004619  -0.001981   0.185246   0.030224  -0.057649
   18  H  2  X    0.025072  -0.008466   0.037826   0.011939  -0.017840
   19  H  2  Y   -0.017913   0.013851   0.001838  -0.009319   0.042079
   20  H  2  Z   -0.009293   0.018423  -0.018346   0.016148  -0.016062
   21  H  3  S    0.182625  -0.171119  -0.365500   0.089793  -0.422366
   22  H  3  S    0.004619  -0.020432  -0.184126   0.030224  -0.057649
   23  H  3  X    0.025072  -0.012194  -0.036794   0.011939  -0.017840
   24  H  3  Y    0.017913  -0.013599   0.003209   0.009319  -0.042079
   25  H  3  Z   -0.009293   0.020159   0.016418   0.016148  -0.016062
   26  H  4  S    0.181229   0.394672  -0.019715   0.138202  -0.525588
   27  H  4  S   -0.001819   0.041025  -0.002049   0.037774  -0.066917
   28  H  4  X   -0.033850  -0.045022   0.002249  -0.011410   0.058469
   29  H  4  Y    0.000000   0.001105   0.022125  -0.000000   0.000000
   30  H  4  Z   -0.002587  -0.008270   0.000413   0.022634  -0.010957

                      6          7

    1  N  1  S   -0.105703  -0.000237
    2  N  1  S   -0.228484  -0.000512
    3  N  1  S    0.177665   0.000398
    4  N  1  X   -0.878601  -0.001968
    5  N  1  Y   -0.001934   0.863863
    6  N  1  Z   -0.004725  -0.000011
    7  N  1  X   -0.163121  -0.000366
    8  N  1  Y    0.000067  -0.030085
    9  N  1  Z    0.058825   0.000132
   10  N  1 XX    0.020082   0.000045
   11  N  1 YY    0.011991   0.000027
   12  N  1 ZZ   -0.032074  -0.000072
   13  N  1 XY   -0.000120   0.053658
   14  N  1 XZ    0.044442   0.000100
   15  N  1 YZ    0.000024  -0.010572
   16  H  2  S   -0.351646  -0.548133
   17  H  2  S   -0.068560  -0.252798
   18  H  2  X    0.007039  -0.047142
   19  H  2  Y    0.039533  -0.001678
   20  H  2  Z   -0.014891   0.016461
   21  H  3  S   -0.354097   0.546553
   22  H  3  S   -0.069691   0.252488
   23  H  3  X    0.006827   0.047173
   24  H  3  Y   -0.039525  -0.001855
   25  H  3  Z   -0.014817  -0.016528
   26  H  4  S    0.714492   0.001599
   27  H  4  S    0.138855   0.000311
   28  H  4  X   -0.066236  -0.000148
   29  H  4  Y    0.000010  -0.004376
   30  H  4  Z    0.023657   0.000053

Actually Used Diabatic Molecualr Orbitals:

                      1          2          3          4          5

    1  N  1  S    0.008918  -0.021693   0.001084  -0.012439   0.175419
    2  N  1  S    0.431906  -0.040065   0.002001  -0.190124   0.655755
    3  N  1  S    0.335791  -0.011875   0.000593  -0.273804   0.233855
    4  N  1  X    0.014682   0.515724  -0.025762  -0.043578   0.055691
    5  N  1  Y    0.000000   0.019722   0.394771  -0.000000   0.000000
    6  N  1  Z    0.086758  -0.042152   0.002106   0.606313   0.562392
    7  N  1  X    0.001762   0.167299  -0.008357   0.048505  -0.050060
    8  N  1  Y    0.000000   0.018061   0.361549  -0.000000   0.000000
    9  N  1  Z    0.028438   0.055777  -0.002786   0.384919  -0.033321
   10  N  1 XX    0.005225   0.008921  -0.000446  -0.010500  -0.051471
   11  N  1 YY   -0.005311  -0.010215   0.000510  -0.008929   0.041337
   12  N  1 ZZ    0.000086   0.001294  -0.000065   0.019429   0.010133
   13  N  1 XY   -0.000000  -0.001121  -0.022433   0.000000  -0.000000
   14  N  1 XZ   -0.003215   0.011657  -0.000582   0.005917   0.025271
   15  N  1 YZ    0.000000   0.001360   0.027221  -0.000000   0.000000
[...]

 DIRECT MAXIMIZATION (DM) WITHOUT TRUNCATING ADIABATS
 EXPANSIONS INTO THE REFERENCE CONFIGURATION SPACE
 --------------------------------------------------

 -------------------------------------------
 - DM DIABT PT HAMILTONIAN MATRIX ELEMENTS -
 -------------------------------------------
                                            
 --- DIABATIC ENERGIES (DIAGONAL ELEMENT) ---       HARTREE            EV
 STATE #  1'S GMC-PT-LEVEL DIABATIC ENERGY=     -55.886181797       0.000000000
 STATE #  2'S GMC-PT-LEVEL DIABATIC ENERGY=     -55.596159678       7.891903812
 STATE #  3'S GMC-PT-LEVEL DIABATIC ENERGY=     -55.845936577       1.095128206

 --- DIABATIC COUPLINGS (OFF DIAGONAL ELEMENTS)---  HATREE            EV
 STATE #  1 &  2'S GMC-PT-LEVEL COUPLING  =       0.060567724       1.648131730
 STATE #  1 &  3'S GMC-PT-LEVEL COUPLING  =      -0.000121785      -0.003313947
 STATE #  2 &  3'S GMC-PT-LEVEL COUPLING  =      -0.000459098      -0.012492688

 ---------------------------------------
     - ROTATION TO DIABATIC STATES -    
 ---------------------------------------
 ROWS=ADIABATIC, COLUMNS=DIABATIC STATES

             1           2           3

    1   -0.9804962   0.1965370  -0.0005570
    2    0.0001904  -0.0018842  -0.9999982
    3    0.1965377   0.9804946  -0.0018100

 ---------------------------------------
          - DIABATIC STATES -           
 ---------------------------------------

 State #    1  Energy =     -55.886181797

      Det      Coef        Coefp    Occupancy (Ignoring core)
      ---      ----        ----    --------- --------- -----
        1    0.899839   -0.899839  222+000
       17    0.222229    0.222229  22-+00+
      701   -0.190314   -0.190314  22++00-
        4    0.141743   -0.141743  2-2++00
      176   -0.134590    0.134590  2+2+-00
        6   -0.094039    0.094039  22200+0
      393   -0.056015   -0.056015  202+020
      402    0.054592   -0.054592  2+-+0-+
      192    0.054526   -0.054526  2+-+-0+
      704    0.053167   -0.053167  2-+++0-
      386   -0.051039    0.051039  2+2+0-0
       23   -0.050940   -0.050940  2--++0+
      708    0.048662   -0.048662  2-++0+-
      717   -0.044965   -0.044965  220+002
      911   -0.044369   -0.044369  2+++-0-
      215   -0.040413   -0.040413  022+200
      706    0.039305    0.039305  22+00+-
      227   -0.036043   -0.036043  +2-+-0+
       26   -0.035304   -0.035304  22-00++
      390    0.035194   -0.035194  -+2++-0
      702    0.035129    0.035129  22+0+0-
      705   -0.034656   -0.034656  -2+++0-
      218    0.034592   -0.034592  +-2+-+0
     1051   -0.034507   -0.034507  2+++0--
      143   -0.033387   -0.033387  220+200
      212    0.032345    0.032345  +220200
        8    0.031981   -0.031981  2-2+0+0
       51   -0.031915    0.031915  22+-00+
       29   -0.031276   -0.031276  2--+0++
      122    0.029566    0.029566  +2-200+
       20   -0.027760   -0.027760  22-0+0+
      424   -0.026414   -0.026414  +-2++-0
      773    0.025627   -0.025627  +2-++0-
      159    0.025385   -0.025385  -2++-0+
      184   -0.023974   -0.023974  -+2+-+0
       38   -0.023693    0.023693  2202+00
      387   -0.022382    0.022382  2+20+-0
      113   -0.021721    0.021721  +-220+0
      421   -0.020152   -0.020152  +22+0-0

 State #    2  Energy =     -55.596159678

      Det      Coef        Coefp    Occupancy (Ignoring core)
      ---      ----        ----    --------- --------- -----
       71   -0.902233    0.902233  2+22000
      806   -0.192556   -0.192556  2++200-
       87    0.177909   -0.177909  2+-200+
       74   -0.108629    0.108629  2022+00
       76   -0.105043   -0.105043  2+2-0+0
      386    0.101135   -0.101135  2+2+0-0
       78   -0.087764    0.087764  20220+0
       72   -0.071525   -0.071525  2+2-+00
      813    0.060677   -0.060677  20+20+-
       38   -0.059403    0.059403  2202+00
      122    0.056974    0.056974  +2-200+
      106   -0.054031   -0.054031  +222000
      822    0.053050   -0.053050  2+02002
      807   -0.049577    0.049577  2++-+0-
      809    0.044930   -0.044930  20+2+0-
       99   -0.044597    0.044597  20-20++
      248    0.043704   -0.043704  2+02200
      111    0.043545   -0.043545  +22-0+0
      192   -0.043444    0.043444  2+-+-0+
       36    0.043372    0.043372  22+2000
      811   -0.042894    0.042894  2++-0+-
      320    0.041881    0.041881  0+22200
       90    0.041325    0.041325  2+--+0+
      332   -0.040264    0.040264  ++-2-0+
      317    0.039916   -0.039916  ++2-200
      810   -0.039731   -0.039731  -++2+0-
      402   -0.038592    0.038592  2+-+0-+
      176    0.037522   -0.037522  2+2+-00
      180   -0.036604    0.036604  -+2+200
      177    0.035682   -0.035682  2+20200
       93   -0.034278    0.034278  20-2+0+
      841   -0.034024    0.034024  +2+200-
        4    0.034003   -0.034003  2-2++00
     1051    0.032684    0.032684  2+++0--
      911    0.032130    0.032130  2+++-0-
      323   -0.031719    0.031719  +022-+0
       51    0.030870   -0.030870  22+-00+
       96    0.030237    0.030237  2+--0++
      109   -0.028722    0.028722  +-22+00
      264    0.028686   -0.028686  -++2-0+
      878    0.026457    0.026457  ++-2+0-
       17   -0.026368   -0.026368  22-+00+
        6    0.025783   -0.025783  22200+0
      316    0.023908    0.023908  ++22-00
        9   -0.023127   -0.023127  -22+0+0
       54   -0.022949    0.022949  -2+200+
      107    0.022803   -0.022803  +22-+00
      529    0.021490    0.021490  +022+-0
      421   -0.020418   -0.020418  +22+0-0
      183   -0.020361    0.020361  202+-+0

 State #    3  Energy =     -55.845936577

      Det      Coef        Coefp    Occupancy (Ignoring core)
      ---      ----        ----    --------- --------- -----
       36   -0.899230   -0.899230  22+2000
       52   -0.194481    0.194481  220200+
       39   -0.169907   -0.169907  2-+2+00
      246    0.155197    0.155197  2++2-00
       41   -0.131185    0.131185  22+-0+0
      351    0.126086    0.126086  22++0-0
      456    0.072126    0.072126  2++20-0
       43   -0.064694   -0.064694  2-+20+0
       37   -0.064263    0.064263  22+-+00
      472   -0.060686   -0.060686  2+020-+
      262   -0.058713   -0.058713  2+02-0+
       58    0.057001   -0.057001  2-02+0+
      141    0.054560    0.054560  22++-00
      463    0.051403   -0.051403  20+2020
      367    0.050917   -0.050917  220+0-+
      157    0.049223   -0.049223  220+-0+
       61   -0.045041   -0.045041  220-0++
       55   -0.045031   -0.045031  220-+0+
       64    0.044780   -0.044780  2-020++
       71   -0.043217    0.043217  2+22000
      285    0.040677   -0.040677  02+2200
      297    0.036585   -0.036585  +202-0+
      142    0.036069    0.036069  22+0200
      145   -0.036000   -0.036000  -2++200
      460   -0.034578   -0.034578  -++2+-0
      282    0.034212    0.034212  +2+-200
      288   -0.032691   -0.032691  +-+2-+0
      121   -0.027711    0.027711  +22-00+
      123    0.026847   -0.026847  +-2200+
      843   -0.026493   -0.026493  +202+0-
      494    0.024153   -0.024153  +-+2+-0
      716    0.023240    0.023240  22+0002
       46    0.022933   -0.022933  2-+-++0
      254    0.022690   -0.022690  -++2-+0
      108    0.021911    0.021911  +2-2+00
      148   -0.021087   -0.021087  2-++-+0
      457   -0.020893    0.020893  2++-+-0
       40   -0.020602    0.020602  -2+2+00

 ---------------------------------------
      - DIABATIC STATES IN CMO -        
 ---------------------------------------

 State #    1  Energy =     -55.886181797

      Det      Coef        Coefp    Occupancy (Ignoring core)
      ---      ----        ----    --------- --------- -----
        1    0.957875   -0.957875  222+000
       71   -0.175292    0.175292  2+22000
      717   -0.086972   -0.086972  220+002
      393   -0.057745   -0.057745  202+020
      106   -0.042930   -0.042930  +222000
      704    0.042225   -0.042225  2-+++0-
      215   -0.041741   -0.041741  022+200
      179   -0.040537   -0.040537  202+200
        2    0.038132   -0.038132  2220+00
      705   -0.036803   -0.036803  -2+++0-
        8   -0.035598    0.035598  2-2+0+0
      227   -0.034413   -0.034413  +2-+-0+
      143   -0.034139   -0.034139  220+200
      702    0.032313    0.032313  22+0+0-
      122    0.032270    0.032270  +2-200+
      192    0.032216   -0.032216  2+-+-0+
       51   -0.031860    0.031860  22+-00+
      708    0.031594   -0.031594  2-++0+-
       17    0.031433    0.031433  22-+00+
      402    0.029936   -0.029936  2+-+0-+
       38   -0.028237    0.028237  2202+00
      109   -0.027767    0.027767  +-22+00
      212    0.027021    0.027021  +220200
       23   -0.026347   -0.026347  2--++0+
      391    0.025741   -0.025741  2+20020
      390    0.025357   -0.025357  -+2++-0
      773    0.024861   -0.024861  +2-++0-
      428    0.023573    0.023573  +-2+020
        4   -0.023502    0.023502  2-2++00
      159    0.023130   -0.023130  -2++-0+
      911   -0.023091   -0.023091  2+++-0-
      394   -0.022778    0.022778  -+2+020
      218    0.022669   -0.022669  +-2+-+0
      214   -0.022524   -0.022524  +-2+200
       20   -0.022465   -0.022465  22-0+0+
       76    0.020668    0.020668  2+2-0+0
       54   -0.020473    0.020473  -2+200+
      753   -0.020295   -0.020295  202+002
      113   -0.020193    0.020193  +-220+0

 State #    2  Energy =     -55.596159678

      Det      Coef        Coefp    Occupancy (Ignoring core)
      ---      ----        ----    --------- --------- -----
       71   -0.952670    0.952670  2+22000
        1   -0.177124    0.177124  222+000
      822    0.088603   -0.088603  2+02002
       38   -0.066724    0.066724  2202+00
      122    0.052887    0.052887  +2-200+
      177    0.046550   -0.046550  2+20200
      107    0.044200   -0.044200  +22-+00
      320    0.043416    0.043416  0+22200
      109   -0.042977    0.042977  +-22+00
        4    0.040160   -0.040160  2-2++00
      809    0.039839   -0.039839  20+2+0-
      111    0.039697   -0.039697  +22-0+0
      192   -0.037308    0.037308  2+-+-0+
      810   -0.036469   -0.036469  -++2+0-
      332   -0.034916    0.034916  ++-2-0+
      248    0.033789   -0.033789  2+02200
       17   -0.033747   -0.033747  22-+00+
      807   -0.032146    0.032146  2++-+0-
      180   -0.030854    0.030854  -+2+200
      813    0.030771   -0.030771  20+20+-
       51    0.030279   -0.030279  22+-00+
       54   -0.028004    0.028004  -2+200+
      911    0.027796    0.027796  2+++-0-
       78   -0.027679    0.027679  20220+0
        5   -0.026952   -0.026952  -22++00
       93   -0.026210    0.026210  20-2+0+
      391    0.026041   -0.026041  2+20020
      317    0.025837   -0.025837  ++2-200
      179    0.025010    0.025010  202+200
      841   -0.024883    0.024883  +2+200-
       87   -0.024676    0.024676  2+-200+
      878    0.024656    0.024656  ++-2+0-
       76    0.024570    0.024570  2+2-0+0
       90    0.024092    0.024092  2+--+0+
      421   -0.024031   -0.024031  +22+0-0
      264    0.023790   -0.023790  -++2-0+
       75    0.022934    0.022934  -+22+00
       53    0.022706    0.022706  2-+200+
      321    0.021008    0.021008  ++2--+0
       72   -0.020846   -0.020846  2+2-+00
      323   -0.020796    0.020796  +022-+0
      316    0.020043    0.020043  ++22-00

 State #    3  Energy =     -55.845936577

      Det      Coef        Coefp    Occupancy (Ignoring core)
      ---      ----        ----    --------- --------- -----
       36   -0.980566   -0.980566  22+2000
      463    0.054518   -0.054518  20+2020
      249    0.049049   -0.049049  20+2200
      142    0.046183    0.046183  22+0200
      262   -0.045528   -0.045528  2+02-0+
      285    0.040726   -0.040726  02+2200
      157    0.036201   -0.036201  220+-0+
      297    0.035596   -0.035596  +202-0+
       58    0.035044   -0.035044  2-02+0+
      472   -0.033594   -0.033594  2+020-+
      123    0.031997   -0.031997  +-2200+
       55   -0.028996   -0.028996  220-+0+
       52   -0.028256    0.028256  220200+
      145   -0.027199   -0.027199  -2++200
      282    0.026474    0.026474  +2+-200
      356    0.026267    0.026267  22+0020
      823    0.024937   -0.024937  20+2002
      108    0.024373    0.024373  +2-2+00
      121   -0.023801    0.023801  +22-00+
      498   -0.023047    0.023047  +-+2020
      464    0.022424    0.022424  -++2020
      288   -0.022368   -0.022368  +-+2-+0
      460   -0.021819   -0.021819  -++2+-0
      843   -0.021806   -0.021806  +202+0-
      461    0.021705   -0.021705  2++-020
       16   -0.021538    0.021538  222000+
      247   -0.021484    0.021484  2++-200
      144    0.021473   -0.021473  2-++200
       64    0.021117   -0.021117  2-020++
      358   -0.021040    0.021040  2-++020
      457   -0.020883    0.020883  2++-+-0
       43    0.020237    0.020237  2-+20+0
      148   -0.020091   -0.020091  2-++-+0

 ---------------------------------------
    -DIABATIC STATES IN PROTOTYPES-     
 ---------------------------------------

     STATE:    1
 Group Ref#    Coefficients
     1    1    0.919696
     2    2    0.006248
     3    3   -0.000119

WEIGHT OF LISTED PROTOTYPES:   84.59%

     STATE:    2
 Group Ref#    Coefficients
     1    1    0.006280
     2    2    0.914990
     3    3   -0.000412

WEIGHT OF LISTED PROTOTYPES:   83.72%

     STATE:    3
 Group Ref#    Coefficients
     1    1   -0.000119
     2    2   -0.000410
     3    3    0.918925

WEIGHT OF LISTED PROTOTYPES:   84.44%

     DIRECT MAX. DIABATIZATION FINISHED    
 CPU     0: STEP CPU TIME=     0.25 TOTAL CPU TIME=         15.1 (      0.3 MIN)
 TOTAL WALL CLOCK TIME=         15.1 SECONDS, CPU UTILIZATION IS   100.00%

DIABATS FOR SPIN-ORBIT CALCULATION ARE READY

TRANSITION DIPOLES BETWEEN ADIABATS (in A.U.):

STATE PAIR      X         Y         Z
    1    1 -0.420760  0.000000  0.705966
    2    1 -0.000000 -0.077860  0.000000
    2    2 -0.275273 -0.000000  0.285856
    3    1 -0.162505  0.000000 -0.083163
    3    2 -0.000000 -0.074236 -0.000000
    3    3 -0.685760 -0.000000  0.230860


TRANSITION DIPOLES BETWEEN DIABATS (in A.U.):

STATE PAIR      X         Y         Z
    1    1 -0.368362  0.000024  0.719666
    2    1  0.098877 -0.000133 -0.014826
    2    2 -0.738156  0.000332  0.217161
    3    1 -0.000204 -0.061749  0.000111
    3    2  0.000891  0.088091  0.000127
    3    3 -0.275275 -0.000356  0.285856

TRANSITION DIPOLES BETWEEN DIRECT MAX. DIABATS (in A.U.):

STATE PAIR      X         Y         Z
    1    1 -0.368365  0.000024  0.719666
    2    1  0.098883 -0.000133 -0.014817
    2    2 -0.738153  0.000332  0.217161
    3    1 -0.000204 -0.061751  0.000111
    3    2  0.000891  0.088090  0.000127
    3    3 -0.275275 -0.000356  0.285856
 No $TRANST Group Found.
 Quit without doing spin-orbit coupling
 ..... DONE WITH MP2 ENERGY .....
 CPU     0: STEP CPU TIME=     0.00 TOTAL CPU TIME=         15.1 (      0.3 MIN)
 TOTAL WALL CLOCK TIME=         15.1 SECONDS, CPU UTILIZATION IS   100.00%
            100000000  WORDS OF DYNAMIC MEMORY USED
 EXECUTION OF GAMESS TERMINATED NORMALLY Wed Nov 16 19:20:05 2022
 DDI: 715512 bytes (0.7 MB / 0 MWords) used by master data server.

 ----------------------------------------
 CPU timing information for all processes
 ========================================
 0: 14.767 + 0.340 = 15.107
 ----------------------------------------
Note: The following floating-point exceptions are signalling: IEEE_DENORMAL
 ddikick.x: exited gracefully.
unset echo
----- accounting info -----
Files used on the master node io002 were:
-rw-r--r-- 1 bsonghao nooijen   20685 Nov 16 19:19 /scratch/bsonghao/nh3_diabatization_2d_at_mode_7_8_dist0.0_-0.8.F05
-rw-r--r-- 1 bsonghao nooijen  363520 Nov 16 19:20 /scratch/bsonghao/nh3_diabatization_2d_at_mode_7_8_dist0.0_-0.8.F09
-rw-r--r-- 1 bsonghao nooijen 1995920 Nov 16 19:20 /scratch/bsonghao/nh3_diabatization_2d_at_mode_7_8_dist0.0_-0.8.F10
-rw-r--r-- 1 bsonghao nooijen  105904 Nov 16 19:20 /scratch/bsonghao/nh3_diabatization_2d_at_mode_7_8_dist0.0_-0.8.F13
-rw-r--r-- 1 bsonghao nooijen  180312 Nov 16 19:20 /scratch/bsonghao/nh3_diabatization_2d_at_mode_7_8_dist0.0_-0.8.F15
-rw-r--r-- 1 bsonghao nooijen       0 Nov 16 19:19 /scratch/bsonghao/nh3_diabatization_2d_at_mode_7_8_dist0.0_-0.8.F16
-rw-r--r-- 1 bsonghao nooijen    9808 Nov 16 19:20 /scratch/bsonghao/nh3_diabatization_2d_at_mode_7_8_dist0.0_-0.8.F70
-rw-r--r-- 1 bsonghao nooijen    9808 Nov 16 19:20 /scratch/bsonghao/nh3_diabatization_2d_at_mode_7_8_dist0.0_-0.8.F71
-rw-r--r-- 1 bsonghao nooijen   19608 Nov 16 19:20 /scratch/bsonghao/nh3_diabatization_2d_at_mode_7_8_dist0.0_-0.8.F72
-rw-r--r-- 1 bsonghao nooijen   19608 Nov 16 19:20 /scratch/bsonghao/nh3_diabatization_2d_at_mode_7_8_dist0.0_-0.8.F73
-rw-r--r-- 1 bsonghao nooijen 1920824 Nov 16 19:20 /scratch/bsonghao/nh3_diabatization_2d_at_mode_7_8_dist0.0_-0.8.F74
-rw-r--r-- 1 bsonghao nooijen       0 Nov 16 19:19 /scratch/bsonghao/nh3_diabatization_2d_at_mode_7_8_dist0.0_-0.8.F75
-rw-r--r-- 1 bsonghao nooijen   58848 Nov 16 19:20 /scratch/bsonghao/nh3_diabatization_2d_at_mode_7_8_dist0.0_-0.8.F76
-rw-r--r-- 1 bsonghao nooijen       0 Nov 16 19:19 /scratch/bsonghao/nh3_diabatization_2d_at_mode_7_8_dist0.0_-0.8.F77
-rw-r--r-- 1 bsonghao nooijen    1864 Nov 16 19:20 /scratch/bsonghao/nh3_diabatization_2d_at_mode_7_8_dist0.0_-0.8.F78
-rw-r--r-- 1 bsonghao nooijen   39208 Nov 16 19:20 /scratch/bsonghao/nh3_diabatization_2d_at_mode_7_8_dist0.0_-0.8.F79
-rw-r--r-- 1 bsonghao nooijen     104 Nov 16 19:20 /scratch/bsonghao/nh3_diabatization_2d_at_mode_7_8_dist0.0_-0.8.F80
-rw-r--r-- 1 bsonghao nooijen   13472 Nov 16 19:20 /scratch/bsonghao/nh3_diabatization_2d_at_mode_7_8_dist0.0_-0.8.F81
-rw-r--r-- 1 bsonghao nooijen      16 Nov 16 19:20 /scratch/bsonghao/nh3_diabatization_2d_at_mode_7_8_dist0.0_-0.8.F82
-rw-r--r-- 1 bsonghao nooijen   19216 Nov 16 19:20 /scratch/bsonghao/nh3_diabatization_2d_at_mode_7_8_dist0.0_-0.8.F83
-rw-r--r-- 1 bsonghao nooijen   29712 Nov 16 19:20 /scratch/bsonghao/nh3_diabatization_2d_at_mode_7_8_dist0.0_-0.8.F84
-rw-r--r-- 1 bsonghao nooijen  278280 Nov 16 19:20 /scratch/bsonghao/nh3_diabatization_2d_at_mode_7_8_dist0.0_-0.8.F85
-rw-r--r-- 1 bsonghao nooijen  549176 Nov 16 19:20 /scratch/bsonghao/nh3_diabatization_2d_at_mode_7_8_dist0.0_-0.8.F86
-rw-r--r-- 1 bsonghao nooijen     656 Nov 16 19:20 /scratch/bsonghao/nh3_diabatization_2d_at_mode_7_8_dist0.0_-0.8.F87
-rw-r--r-- 1 bsonghao nooijen   25488 Nov 16 19:20 /scratch/bsonghao/nh3_diabatization_2d_at_mode_7_8_dist0.0_-0.8.F88
-rw-r--r-- 1 bsonghao nooijen     240 Nov 16 19:20 /scratch/bsonghao/nh3_diabatization_2d_at_mode_7_8_dist0.0_-0.8.F89
-rw-r--r-- 1 bsonghao nooijen       0 Nov 16 19:19 /scratch/bsonghao/nh3_diabatization_2d_at_mode_7_8_dist0.0_-0.8.F90
-rw-r--r-- 1 bsonghao nooijen   13760 Nov 16 19:20 /scratch/bsonghao/nh3_diabatization_2d_at_mode_7_8_dist0.0_-0.8.F91
-rw-r--r-- 1 bsonghao nooijen   22776 Nov 16 19:20 /scratch/bsonghao/nh3_diabatization_2d_at_mode_7_8_dist0.0_-0.8.F92
-rw-r--r-- 1 bsonghao nooijen   23168 Nov 16 19:20 /scratch/bsonghao/nh3_diabatization_2d_at_mode_7_8_dist0.0_-0.8.F93
-rw-r--r-- 1 bsonghao nooijen   22776 Nov 16 19:20 /scratch/bsonghao/nh3_diabatization_2d_at_mode_7_8_dist0.0_-0.8.F94
-rw-r--r-- 1 bsonghao nooijen   13760 Nov 16 19:20 /scratch/bsonghao/nh3_diabatization_2d_at_mode_7_8_dist0.0_-0.8.F95
-rw-r--r-- 1 bsonghao nooijen   29440 Nov 16 19:20 /scratch/bsonghao/nh3_diabatization_2d_at_mode_7_8_dist0.0_-0.8.F96
-rw-r--r-- 1 bsonghao nooijen    1184 Nov 16 19:20 /scratch/bsonghao/nh3_diabatization_2d_at_mode_7_8_dist0.0_-0.8.F97
-rw-r--r-- 1 bsonghao nooijen    9808 Nov 16 19:20 /scratch/bsonghao/nh3_diabatization_2d_at_mode_7_8_dist0.0_-0.8.F98
-rw-r--r-- 1 bsonghao nooijen   30264 Nov 16 19:20 /scratch/bsonghao/nh3_diabatization_2d_at_mode_7_8_dist0.0_-0.8.F99
ls: No match.
ls: No match.
ls: No match.
Wed 16 Nov 2022 07:20:08 PM EST
0.290u 0.047s 0:18.49 1.7%	0+0k 48+224io 0pf+0w
