----- GAMESS execution script 'rungms' -----
This job is running on host io002
under operating system Linux at Wed 16 Nov 2022 07:44:23 PM EST
Available scratch disk space (Kbyte units) at beginning of the job is
Filesystem       1K-blocks       Used   Available Use% Mounted on
/dev/sdc1      15378471580 3278917120 11318349060  23% /scratch
GAMESS temporary binary files will be written to /scratch/bsonghao
GAMESS supplementary output files will be written to /home/bsonghao/.gamess_ascii_files/267638
Copying input file nh3_diabatization_2d_at_mode_7_8_dist0.3_-0.3.inp to your run's scratch directory...
cp nh3_diabatization_2d_at_mode_7_8_dist0.3_-0.3.inp /scratch/bsonghao/nh3_diabatization_2d_at_mode_7_8_dist0.3_-0.3.F05
unset echo
/home/bjb2chen/gamess/ddikick.x /home/bjb2chen/gamess/gamess.00.x nh3_diabatization_2d_at_mode_7_8_dist0.3_-0.3 -ddi 1 1 io002 -scr /scratch/bsonghao

 Distributed Data Interface kickoff program.
 Initiating 1 compute processes on 1 nodes to run the following command:
 /home/bjb2chen/gamess/gamess.00.x nh3_diabatization_2d_at_mode_7_8_dist0.3_-0.3 

          ******************************************************
          *         GAMESS VERSION = 02 AUG 2018 (R2)         *
          *             FROM IOWA STATE UNIVERSITY             *
          * M.W.SCHMIDT, K.K.BALDRIDGE, J.A.BOATZ, S.T.ELBERT, *
          *   M.S.GORDON, J.H.JENSEN, S.KOSEKI, N.MATSUNAGA,   *
          *          K.A.NGUYEN, S.J.SU, T.L.WINDUS,           *
          *       TOGETHER WITH M.DUPUIS, J.A.MONTGOMERY       *
          *         J.COMPUT.CHEM.  14, 1347-1363(1993)        *
          **************** 64 BIT LINUX VERSION ****************

  SINCE 1993, STUDENTS AND POSTDOCS WORKING AT IOWA STATE UNIVERSITY
  AND ALSO IN THEIR VARIOUS JOBS AFTER LEAVING ISU HAVE MADE IMPORTANT
  CONTRIBUTIONS TO THE CODE:
     IVANA ADAMOVIC, CHRISTINE AIKENS, YURI ALEXEEV, POOJA ARORA,
     ANDREY ASADCHEV, ROB BELL, PRADIPTA BANDYOPADHYAY, JONATHAN BENTZ,
     BRETT BODE, KURT BRORSEN, CALEB CARLIN, GALINA CHABAN, WEI CHEN,
     CHEOL HO CHOI, PAUL DAY, ALBERT DEFUSCO, NUWAN DESILVA, TIM DUDLEY,
     DMITRI FEDOROV, ALEX FINDLATER, GRAHAM FLETCHER, MARK FREITAG,
     KURT GLAESEMANN, ANASTASIA GUININA,
     DAN KEMP, GRANT MERRILL, NORIYUKI MINEZAWA, JONATHAN MULLIN,
     TAKESHI NAGATA, SEAN NEDD, HEATHER NETZLOFF, BOSILJKA NJEGIC, RYAN OLSON,
     MIKE PAK, BUU PHAM,
     SPENCER PRUITT, LUKE ROSKOP, JIM SHOEMAKER, LYUDMILA SLIPCHENKO,
     TONY SMITH, SAROM SOK LEANG, JIE SONG, TETSUYA TAKETSUGU, SIMON WEBB,
     PENG XU, SOOHAENG YOO, FEDERICO ZAHARIEV

  ADDITIONAL CODE HAS BEEN PROVIDED BY COLLABORATORS IN OTHER GROUPS:
     IOWA STATE UNIVERSITY:
          JOE IVANIC, AARON WEST, LAIMUTIS BYTAUTAS, KLAUS RUEDENBERG
     UNIVERSITY OF TOKYO: KIMIHIKO HIRAO, TAKAHITO NAKAJIMA,
          TAKAO TSUNEDA, MUNEAKI KAMIYA, SUSUMU YANAGISAWA,
          KIYOSHI YAGI, MAHITO CHIBA, SEIKEN TOKURA, NAOAKI KAWAKAMI
     UNIVERSITY OF AARHUS: FRANK JENSEN
     UNIVERSITY OF IOWA: VISVALDAS KAIRYS, HUI LI
     NATIONAL INST. OF STANDARDS AND TECHNOLOGY: WALT STEVENS, DAVID GARMER
     UNIVERSITY OF PISA: BENEDETTA MENNUCCI, JACOPO TOMASI
     UNIVERSITY OF MEMPHIS: HENRY KURTZ, PRAKASHAN KORAMBATH
     UNIVERSITY OF ALBERTA: TOBY ZENG, MARIUSZ KLOBUKOWSKI
     UNIVERSITY OF NEW ENGLAND: MARK SPACKMAN
     MIE UNIVERSITY: HIROAKI UMEDA
     NAT. INST. OF ADVANCED INDUSTRIAL SCIENCE AND TECHNOLOGY: KAZUO KITAURA
     MICHIGAN STATE UNIVERSITY:
          KAROL KOWALSKI, MARTA WLOCH, JEFFREY GOUR, JESSE LUTZ,
          WEI LI, JUN SHEN, J. EMILIANO DEUSTUA, PIOTR PIECUCH
     UNIVERSITY OF MINNESOTA:
          YINAN SHU
     UNIVERSITY OF SILESIA: MONIKA MUSIAL, STANISLAW KUCHARSKI
     FACULTES UNIVERSITAIRES NOTRE-DAME DE LA PAIX:
          OLIVIER QUINET, BENOIT CHAMPAGNE
     UNIVERSITY OF CALIFORNIA - SANTA BARBARA: BERNARD KIRTMAN
     INSTITUTE FOR MOLECULAR SCIENCE:
          KAZUYA ISHIMURA, MICHIO KATOUDA, AND SHIGERU NAGASE
     UNIVERSITY OF NOTRE DAME: ANNA POMOGAEVA, DAN CHIPMAN
     KYUSHU UNIVERSITY:
          HARUYUKI NAKANO,
          FENG LONG GU, JACEK KORCHOWIEC, MARCIN MAKOWSKI, AND YURIKO AOKI,
          HIROTOSHI MORI AND EISAKU MIYOSHI
     PENNSYLVANIA STATE UNIVERSITY:
          TZVETELIN IORDANOV, CHET SWALINA, JONATHAN SKONE,
          SHARON HAMMES-SCHIFFER
     WASEDA UNIVERSITY:
          MASATO KOBAYASHI, TOMOKO AKAMA, TSUGUKI TOUMA,
          TAKESHI YOSHIKAWA, YASUHIRO IKABATA, JUNJI SEINO,
          YUYA NAKAJIMA, HIROMI NAKAI
     NANJING UNIVERSITY: SHUHUA LI
     UNIVERSITY OF NEBRASKA:
          PEIFENG SU, DEJUN SI, NANDUN THELLAMUREGE, YALI WANG, HUI LI
     UNIVERSITY OF ZURICH: ROBERTO PEVERATI, KIM BALDRIDGE
     N. COPERNICUS UNIVERSITY AND JACKSON STATE UNIVERSITY:
          MARIA BARYSZ
     UNIVERSITY OF COPENHAGEN: Jimmy Kromann, CASPER STEINMANN
     TOKYO INSTITUTE OF TECHNOLOGY: HIROYA NAKATA
     NAGOYA UNIVERSITY: YOSHIO NISHIMOTO, STEPHAN IRLE
     MOSCOW STATE UNIVERSITY: VLADIMIR MIRONOV

 EXECUTION OF GAMESS BEGUN Wed Nov 16 19:44:23 2022

            ECHO OF THE FIRST FEW INPUT CARDS -
 INPUT CARD> $system kdiag=3 mwords=100 memddi=1000 parall=.t. $end                         
 INPUT CARD> $contrl runtyp=energy ispher=1 $end                                            
 INPUT CARD> $contrl icut=9 itol=20 inttyp=rysquad qmttol=1.0d-05 nosym=1 $end              
 INPUT CARD> $scf    npunch=2 conv=1.0d-06 dirscf=.t.      $end                             
 INPUT CARD> $contrl scftyp=mcscf  mult=2 maxit=200 icharg=1 mplevl=2 $end                  
 INPUT CARD> $guess  guess=moread norb=29 purify=.t. $end                                   
 INPUT CARD> $basis  gbasis=ccd $end                                                        
 INPUT CARD> $mcscf  cistep=gmcci fullnr=.t. finci=mos                                      
 INPUT CARD>         acurcy=1.d-6 maxit=100 $end                                            
 INPUT CARD> $trans  dirtrf=.t. $end                                                        
 INPUT CARD> $mrmp   mrpt=gmcpt rdvecs=.f. $end                                             
 INPUT CARD> $gmcpt  nmofzc=0 nmodoc=1 nmoact=7 nelact=7 stsym(1)=A                         
 INPUT CARD>         reftyp=ormas nspace=1 mstart(1)=2 mine(1)=7 maxe(1)=7                  
 INPUT CARD>         kstate(1)=1,1,1                                                        
 INPUT CARD>         wstate(1)=1,1,1                                                        
 INPUT CARD>         iwgt=0 thrwgt=-1.0 krot=.f. kszdoe=.f. knospn=.f.                      
 INPUT CARD>         thrde=-1.0 edshft=0.02 $end                                            
 INPUT CARD> $data                                                                          
 INPUT CARD> NH3+ 3 states calculation at NH3 structure.                                    
 INPUT CARD> c1                                                                             
 INPUT CARD>N 7.0 0.018686754000000003 -0.018686709000000003 -0.1693805222                  
 INPUT CARD>H 1.0 -0.503428594 0.7116971428000001 0.3646377531                              
 INPUT CARD>H 1.0 -0.732704539 -0.6709662358 0.2274733341                                   
 INPUT CARD>H 1.0 0.976475666 0.21892722600000003 0.1772671161                              
 INPUT CARD>$end                                                                            
 INPUT CARD>--- OPTIMIZED RHF      MO-S --- GENERATED AT Mon Nov 14 16:47:08 2022           
 INPUT CARD>E=      -56.3825050291, E(NUC)=   11.8429239490                                 
 INPUT CARD> $VEC                                                                           
 INPUT CARD> 1  1-1.00134066E+00-2.25158504E-03 3.44925845E-03 0.00000000E+00 0.00000000E+00
 INPUT CARD> 1  2-2.13170927E-03 0.00000000E+00 0.00000000E+00 6.57129898E-04-6.87950443E-05
 INPUT CARD> 1  3-6.87950443E-05 1.37590089E-04 0.00000000E+00 0.00000000E+00 0.00000000E+00
 INPUT CARD> 1  4 3.25502815E-04-4.84772356E-04 3.62525460E-04-6.27912517E-04-3.45956485E-04
 INPUT CARD> 1  5 3.25502815E-04-4.84772356E-04 3.62525460E-04 6.27912517E-04-3.45956485E-04
 INPUT CARD> 1  6 3.25502815E-04-4.84772356E-04-7.25050921E-04 0.00000000E+00-3.45956485E-04
 INPUT CARD> 2  1 1.31286642E-02-4.05911371E-01-2.82090992E-01 0.00000000E+00 0.00000000E+00
 INPUT CARD> 2  2-7.71489043E-02 0.00000000E+00 0.00000000E+00 9.73717494E-03 6.62450916E-04
 INPUT CARD> 2  3 6.62450916E-04-1.32490183E-03 0.00000000E+00 0.00000000E+00 0.00000000E+00
 INPUT CARD> 2  4-1.96090317E-01-1.96656153E-02-1.74855877E-02 3.02859263E-02 8.68214399E-03
 INPUT CARD> 2  5-1.96090317E-01-1.96656153E-02-1.74855877E-02-3.02859263E-02 8.68214399E-03
 INPUT CARD> 2  6-1.96090317E-01-1.96656153E-02 3.49711754E-02 0.00000000E+00 8.68214399E-03
 INPUT CARD> 3  1 0.00000000E+00 0.00000000E+00 0.00000000E+00 4.48608762E-01 0.00000000E+00
 INPUT CARD> 3  2 0.00000000E+00 2.18692520E-01 0.00000000E+00 0.00000000E+00 1.30198027E-02
 INPUT CARD> 3  3-1.30198027E-02 0.00000000E+00 0.00000000E+00 2.71832968E-02 0.00000000E+00
 INPUT CARD> 3  4-1.85332726E-01-7.03958951E-02 8.47929477E-03 1.95242443E-02 8.32835058E-03
 INPUT CARD> 3  5-1.85332726E-01-7.03958951E-02 8.47929477E-03-1.95242443E-02 8.32835058E-03
 INPUT CARD> 3  6 3.70665453E-01 1.40791790E-01-2.53376884E-02 0.00000000E+00-1.66567012E-02
 INPUT CARD> 4  1 0.00000000E+00 0.00000000E+00 0.00000000E+00 0.00000000E+00 4.48608762E-01
 INPUT CARD> 4  2 0.00000000E+00 0.00000000E+00 2.18692520E-01 0.00000000E+00 0.00000000E+00
 INPUT CARD> 4  3 0.00000000E+00 0.00000000E+00-1.50339731E-02 0.00000000E+00 2.71832968E-02
 INPUT CARD> 4  4 3.21005698E-01 1.21929267E-01 1.95242443E-02-1.40653607E-02-1.44251263E-02
  100000000 WORDS OF MEMORY AVAILABLE

     BASIS OPTIONS
     -------------
     GBASIS=CCD          IGAUSS=       0      POLAR=NONE    
     NDFUNC=       0     NFFUNC=       0     DIFFSP=       F
     NPFUNC=       0      DIFFS=       F     BASNAM=        


     RUN TITLE
     ---------
  NH3+ 3 states calculation at NH3 structure.                                    

 THE POINT GROUP OF THE MOLECULE IS C1      
 THE ORDER OF THE PRINCIPAL AXIS IS     0

 ATOM      ATOMIC                      COORDINATES (BOHR)
           CHARGE         X                   Y                   Z
 N           7.0     0.0353128447       -0.0353127596       -0.3200827746
 H           1.0    -0.9513420970        1.3449125861        0.6890654381
 H           1.0    -1.3846108087       -1.2679423327        0.4298622710
 H           1.0     1.8452714424        0.4137124684        0.3349862761

          INTERNUCLEAR DISTANCES (ANGS.)
          ------------------------------

                1 N          2 H          3 H          4 H     

   1 N       0.0000000    1.0446246 *  1.0712378 *  1.0459372 *
   2 H       1.0446246 *  0.0000000    1.4082399 *  1.5710018 *
   3 H       1.0712378 *  1.4082399 *  0.0000000    1.9276224 *
   4 H       1.0459372 *  1.5710018 *  1.9276224 *  0.0000000  

  * ... LESS THAN  3.000


     ATOMIC BASIS SET
     ----------------
 THE CONTRACTED PRIMITIVE FUNCTIONS HAVE BEEN UNNORMALIZED
 THE CONTRACTED BASIS FUNCTIONS ARE NOW NORMALIZED TO UNITY

  SHELL TYPE  PRIMITIVE        EXPONENT          CONTRACTION COEFFICIENT(S)

 N         

      1   S       1          9046.0000000    0.000699617413
      1   S       2          1357.0000000    0.005386054630
      1   S       3           309.3000000    0.027391021189
      1   S       4            87.7300000    0.103150591982
      1   S       5            28.5600000    0.278570663317
      1   S       6            10.2100000    0.448294849454
      1   S       7             3.8380000    0.278085928395
      1   S       8             0.7466000    0.015431561233

      2   S       9          9046.0000000   -0.000304990096
      2   S      10          1357.0000000   -0.002408026379
      2   S      11           309.3000000   -0.011944448725
      2   S      12            87.7300000   -0.048925992909
      2   S      13            28.5600000   -0.134472724725
      2   S      14            10.2100000   -0.315112577700
      2   S      15             3.8380000   -0.242857832550
      2   S      16             0.7466000    1.094382206854

      3   S      17             0.2248000    1.000000000000

      4   P      18            13.5500000    0.058905676772
      4   P      19             2.9170000    0.320461106714
      4   P      20             0.7973000    0.753042061792

      5   P      21             0.2185000    1.000000000000

      6   D      22             0.8170000    1.000000000000

 H         

      7   S      23            13.0100000    0.033498726390
      7   S      24             1.9620000    0.234800801174
      7   S      25             0.4446000    0.813682957883

      8   S      26             0.1220000    1.000000000000

      9   P      27             0.7270000    1.000000000000

 H         

     10   S      28            13.0100000    0.033498726390
     10   S      29             1.9620000    0.234800801174
     10   S      30             0.4446000    0.813682957883

     11   S      31             0.1220000    1.000000000000

     12   P      32             0.7270000    1.000000000000

 H         

     13   S      33            13.0100000    0.033498726390
     13   S      34             1.9620000    0.234800801174
     13   S      35             0.4446000    0.813682957883

     14   S      36             0.1220000    1.000000000000

     15   P      37             0.7270000    1.000000000000

 TOTAL NUMBER OF BASIS SET SHELLS             =   15
 NUMBER OF CARTESIAN GAUSSIAN BASIS FUNCTIONS =   30
 NOTE: THIS RUN WILL RESTRICT THE MO VARIATION SPACE TO SPHERICAL HARMONICS.
 THE NUMBER OF ORBITALS KEPT IN THE VARIATIONAL SPACE WILL BE PRINTED LATER.
 NUMBER OF ELECTRONS                          =    9
 CHARGE OF MOLECULE                           =    1
 SPIN MULTIPLICITY                            =    2
 NUMBER OF OCCUPIED ORBITALS (ALPHA)          =    5
 NUMBER OF OCCUPIED ORBITALS (BETA )          =    4
 TOTAL NUMBER OF ATOMS                        =    4
 THE NUCLEAR REPULSION ENERGY IS       11.5325968137

     $CONTRL OPTIONS
     ---------------
 SCFTYP=MCSCF        RUNTYP=ENERGY       EXETYP=RUN     
 MPLEVL=       2     CITYP =NONE         CCTYP =NONE         VBTYP =NONE    
 DFTTYP=NONE         TDDFT =NONE    
 MULT  =       2     ICHARG=       1     NZVAR =       0     COORD =UNIQUE  
 PP    =NONE         RELWFN=NONE         LOCAL =NONE         NUMGRD=       F
 ISPHER=       1     NOSYM =       1     MAXIT =     200     UNITS =ANGS    
 PLTORB=       F     MOLPLT=       F     AIMPAC=       F     FRIEND=        
 NPRINT=       7     IREST =       0     GEOM  =INPUT   
 NORMF =       0     NORMP =       0     ITOL  =      20     ICUT  =       9
 INTTYP=RYSQUAD      GRDTYP=BEST         QMTTOL= 1.0E-05

     $SYSTEM OPTIONS
     ---------------
  REPLICATED MEMORY=   100000000 WORDS (ON EVERY NODE).
 DISTRIBUTED MEMDDI=        1000 MILLION WORDS IN AGGREGATE,
 MEMDDI DISTRIBUTED OVER   1 PROCESSORS IS  1000000000 WORDS/PROCESSOR.
 TOTAL MEMORY REQUESTED ON EACH PROCESSOR=  1100000000 WORDS.
 TIMLIM=      525600.00 MINUTES, OR     365.0 DAYS.
 PARALL= T  BALTYP=  DLB     KDIAG=    3  COREFL= F
 MXSEQ2=     300 MXSEQ3=     150  mem10=         0

          ----------------
          PROPERTIES INPUT
          ----------------

     MOMENTS            FIELD           POTENTIAL          DENSITY
 IEMOM =       1   IEFLD =       0   IEPOT =       0   IEDEN =       0
 WHERE =COMASS     WHERE =NUCLEI     WHERE =NUCLEI     WHERE =NUCLEI  
 OUTPUT=BOTH       OUTPUT=BOTH       OUTPUT=BOTH       OUTPUT=BOTH    
 IEMINT=       0   IEFINT=       0                     IEDINT=       0
                                                       MORB  =       0

     -------------------------------
     INTEGRAL TRANSFORMATION OPTIONS
     -------------------------------
     NWORD  =            0
     CUTOFF = 1.0E-09     MPTRAN =       0
     DIRTRF =       T     AOINTS =DUP     

          ----------------------
          MCSCF INPUT PARAMETERS
          ----------------------
 CONVERGER SELECTION: FOCAS = F  SOSCF = F  FULLNR = T  QUD = F  JACOBI = F
 SECULAR EQUATION METHOD CISTEP = GMCCI   
 --- GENERAL INPUT OPTIONS:
 MAXIT =     100  MICIT =       1  ACURCY= 1.000E-06
 DAMP  =   0.000  CANONC=       T  ENGTOL= 1.000E-10
 EKT   =       F  NPUNCH=       2  NWORD =         0
 REGENERATE CI AFTER CONVERGENCE = NONE    
 DIABATIZATION AFTER CONVERGENCE =        F
 --- INPUT FOR FULLNR CONVERGER:
 METHOD=DM2       FORS  =       F  DROPC =       T
 LINSER=       F  FCORE =       F  NORB  =      30

          ----------------------
          INTEGRAL INPUT OPTIONS
          ----------------------
 NOPK  =       1 NORDER=       0 SCHWRZ=       T

 ------------------------------------------
 MULTIREFERENCE PERTURBATION THEORY CONTROL
 ------------------------------------------
 MRPT=GMCPT    READ CONVERGED MCSCF VECTORS= F


     ------------------------------------------
     THE POINT GROUP IS C1 , NAXIS= 1, ORDER= 1
     ------------------------------------------

 -- VARIATIONAL SPACE WILL BE RESTRICTED TO PURE SPHERICAL HARMONICS ONLY --
 AFTER EXCLUDING CONTAMINANT COMBINATIONS FROM THE CARTESIAN GAUSSIAN BASIS
 SET, THE NUMBER OF SPHERICAL HARMONICS KEPT IN THE VARIATION SPACE IS   29

     DIMENSIONS OF THE SYMMETRY SUBSPACES ARE
 A   =   29

 ..... DONE SETTING UP THE RUN .....
 CPU     0: STEP CPU TIME=     0.03 TOTAL CPU TIME=          0.0 (      0.0 MIN)
 TOTAL WALL CLOCK TIME=          0.0 SECONDS, CPU UTILIZATION IS    75.00%

          ********************
          1 ELECTRON INTEGRALS
          ********************
 TIME TO DO   DIPOLE INTEGRALS=      0.00
 ...... END OF ONE-ELECTRON INTEGRALS ......
 CPU     0: STEP CPU TIME=     0.00 TOTAL CPU TIME=          0.0 (      0.0 MIN)
 TOTAL WALL CLOCK TIME=          0.1 SECONDS, CPU UTILIZATION IS    60.00%

          -------------
          GUESS OPTIONS
          -------------
          GUESS =MOREAD            NORB  =      29          NORDER=       0
          MIX   =       F          PRTMO =       F          PUNMO =       F
          TOLZ  = 1.0E-08          TOLE  = 1.0E-05
          SYMDEN=       F          PURIFY=       T

 INITIAL GUESS ORBITALS GENERATED BY MOREAD   ROUTINE.

 STATISTICS FOR GENERATION OF SYMMETRY ORBITAL -Q- MATRIX
 NUMBER OF CARTESIAN ATOMIC ORBITALS=         30
 NUMBER OF SPHERICAL CONTAMINANTS DROPPED=     1
 NUMBER OF LINEARLY DEPENDENT MOS DROPPED=     0
 TOTAL NUMBER OF MOS IN VARIATION SPACE=      29
 ORBITAL PURIFICATION WILL OCCUR

 SYMMETRIES FOR INITIAL GUESS ORBITALS FOLLOW.   BOTH SET(S).
     5 ORBITALS ARE OCCUPIED (    1 CORE ORBITALS).
     1=A        2=A        3=A        4=A        5=A        6=A        7=A   
     8=A        9=A       10=A       11=A       12=A       13=A       14=A   
    15=A       16=A       17=A       18=A       19=A       20=A       21=A   
    22=A       23=A       24=A       25=A       26=A       27=A       28=A   
    29=A   
 ...... END OF INITIAL ORBITAL SELECTION ......
 CPU     0: STEP CPU TIME=     0.01 TOTAL CPU TIME=          0.0 (      0.0 MIN)
 TOTAL WALL CLOCK TIME=          0.1 SECONDS, CPU UTILIZATION IS    80.00%

                    ----------------------
                    AO INTEGRAL TECHNOLOGY
                    ----------------------
     S,P,L SHELL ROTATED AXIS INTEGRALS, REPROGRAMMED BY
        KAZUYA ISHIMURA (IMS) AND JOSE SIERRA (SYNSTAR).
     S,P,D,L SHELL ROTATED AXIS INTEGRALS PROGRAMMED BY
        KAZUYA ISHIMURA (INSTITUTE FOR MOLECULAR SCIENCE).
     S,P,D,F,G SHELL TO TOTAL QUARTET ANGULAR MOMENTUM SUM 5,
        ERIC PROGRAM BY GRAHAM FLETCHER (ELORET AND NASA ADVANCED
        SUPERCOMPUTING DIVISION, AMES RESEARCH CENTER).
     S,P,D,F,G,L SHELL GENERAL RYS QUADRATURE PROGRAMMED BY
        MICHEL DUPUIS (PACIFIC NORTHWEST NATIONAL LABORATORY).

          --------------------
          2 ELECTRON INTEGRALS
          --------------------

 DIRECT SCF METHOD SKIPS INTEGRAL STORAGE ON DISK.
 DIRECT TRANSFORMATION SKIPS AO INTEGRAL STORAGE ON DISK.
  ...... END OF TWO-ELECTRON INTEGRALS .....
 STEP CPU TIME =     0.02 TOTAL CPU TIME =          0.1 (      0.0 MIN)
 TOTAL WALL CLOCK TIME=          0.1 SECONDS, CPU UTILIZATION IS    75.00%
 DDI: Creating Array [0] - 900 x 36 = 32400 words.
 DDI: Creating Array [1] - 21 x 288 = 6048 words.
 DDI: Creating Array [2] - 36 x 36 = 1296 words.
 DDI: Creating Array [3] - 465 x 36 = 16740 words.

          -----------------
          MCSCF CALCULATION
          -----------------

 ----- NUCLEAR ENERGY ----- =        11.5325968137

     -------------------------------------------------
     GMC-PT/GMC-QDPT or general MCSCF input parameters
     -------------------------------------------------
 # of frozen core orbs. =         0 ->         0
 # of doubly occ. orbs. =         1
 # of active      orbs. =         7
 # of virtual     orbs. =        21
 # of active electrons  =         7
 # of states in CI      =         3
 Highest state in CI    =         3
 kstate =  1 1 1
 avecoe =  0.333 0.333 0.333
 State symmetry           = A           
 Assigned symmetry number = 1

 <<<Act. MO sym.: 1111111

 <<<Division of 1-ext.:  0
 <<<Division of 2-ext.:  0

 *** Reference space

 Reference type: ORMAS (= Occupation restricted multiple active space)
 # of orbitals          =  7
 # of minimum electrons =  7
 # of maximum electrons =  7
 State symmetry    =    1 (input)
 2*Sz              =    1 (input)
 Spin multiplicity =    2 (input)
 Dimension of reference space =      1225  (from      3432 walks)

 Dimension of reference space =      1225  (from      1225 walks)

 <<<Ionized spaces for Ref-CI:
      0:         1225 /   -1-0:         1960 /  0-1-0:         2891

 EVALUATING EXCHANGE INTEGRALS FOR DIRECT INTEGRAL TRANSFORMATION
 SCHWARZ INEQUALITY OVERHEAD:       465 INTEGRALS, T=        0.00

     --------------------------------------------
     PARTIAL TWO ELECTRON INTEGRAL TRANSFORMATION
     --------------------------------------------

 NUMBER OF CORE MOLECULAR ORBITALS     =    1
 NUMBER OF OCCUPIED MOLECULAR ORBITALS =    8
 TOTAL NUMBER OF MOLECULAR ORBITALS    =   29
 TOTAL NUMBER OF ATOMIC ORBITALS       =   30
 THRESHOLD FOR KEEPING TRANSFORMED 2E- INTEGRALS = 1.000E-09

 -------------------------------     ------------------------------
 DISTRIBUTED DATA TRANSFORMATION     PROGRAM WRITTEN BY G. FLETCHER
 -------------------------------     ------------------------------

 THE DISTRIBUTED MEMORY REQUIRED FOR THIS STEP IS MEMDDI=         1 MWORDS
 CREATING DISTRIBUTED STORAGE FOR [VIR OCC|VIR OCC] INTEGRALS
 CREATING DISTRIBUTED STORAGE FOR [VIR OCC|OCC OCC] INTEGRALS
 CREATING DISTRIBUTED STORAGE FOR [OCC OCC|OCC OCC] INTEGRALS
 CREATING DISTRIBUTED STORAGE FOR [VIR VIR|OCC OCC] INTEGRALS
 FOR    1 PROCESSORS, THE REPLICATED MEMORY NEEDED IS       73700 WORDS.
 SCHWARZ INEQUALITY OVERHEAD:       465 INTEGRALS, T=        0.00

      DIRECT 4-INDEX TRANSFORMATION 
      SCHWARZ INEQUALITY TEST SKIPPED          0 INTEGRAL BLOCKS
 ----- FROZEN CORE ENERGY =       -47.7450679579
 ... END OF INTEGRAL TRANSFORMATION ...
 CPU     0: STEP CPU TIME=     0.23 TOTAL CPU TIME=          0.3 (      0.0 MIN)
 TOTAL WALL CLOCK TIME=          0.3 SECONDS, CPU UTILIZATION IS    96.67%

     --------------------------------     -----------------------------
     MCHF NEWTON-RAPHSON OPTIMIZATION     CODE WRITTEN BY MICHEL DUPUIS
     --------------------------------     -----------------------------
     PARALLEL VERSION WRITTEN BY G. FLETCHER (ELORET)
     NASA ADVANCED SUPERCOMPUTING DIVISION, AMES RESEARCH CENTER

 NUMBER OF INDEPENDENT ORBITAL ROTATION PARAMETERS =   175
 ..... DONE SOLVING NEWTON-RAPHSON EQUATIONS .....
 CPU     0: STEP CPU TIME=     0.89 TOTAL CPU TIME=          1.2 (      0.0 MIN)
 TOTAL WALL CLOCK TIME=          1.2 SECONDS, CPU UTILIZATION IS    99.16%
 ..... DONE WITH NTN-RPH ORBITAL ROTATIONS ..... 
 CPU     0: STEP CPU TIME=     0.00 TOTAL CPU TIME=          1.2 (      0.0 MIN)
 TOTAL WALL CLOCK TIME=          1.2 SECONDS, CPU UTILIZATION IS    99.16%
 MAXIMUM MEMORY USED BY NTN-RPH CODE WAS     57645 WORDS.

 ITER     TOTAL ENERGY      DEL(E)  LAGRANGIAN ASYMMETRY   SQCDF  MICIT   DAMP
   1      -55.659018383 -0.659018383  0.126570   13    3 1.484E-01  1   0.0000
   2      -55.700055117 -0.041036734  0.022705   12    5 4.534E-01  1   0.0000
   3      -55.733349792 -0.033294676  0.012438   11    6 2.140E-01  1   0.0247
   4      -55.747348884 -0.013999092  0.004259   11    6 3.806E-02  1   0.0044
   5      -55.749048921 -0.001700037  0.000690   12    5 9.765E-04  1   0.0000
   6      -55.749094276 -0.000045355  0.000219   12    5 7.025E-05  1   0.0000
   7      -55.749098412 -0.000004136  0.000098   12    5 1.021E-05  1   0.0000
   8      -55.749099068 -0.000000656  0.000043   12    5 1.795E-06  1   0.0000
   9      -55.749099189 -0.000000121  0.000018   12    5 3.665E-07  1   0.0000
  10      -55.749099215 -0.000000026  0.000009   23    5 8.680E-08  1   0.0000
  11      -55.749099221 -0.000000006  0.000004   12    8 2.332E-08  1   0.0000
  12      -55.749099223 -0.000000002  0.000002   12    8 6.813E-09  1   0.0000
  13      -55.749099223 -0.000000000  0.000002   19    4 2.139E-09  1   0.0000
  14      -55.749099223 -0.000000000  0.000001   22    5 6.764E-10  1   0.0000

          --------------------
          LAGRANGIAN CONVERGED
          --------------------

 FINAL MCSCF ENERGY IS      -55.7490992234 AFTER  14 ITERATIONS

 -MCCI- BASED ON OPTIMIZED ORBITALS
 ----------------------------------

 PLEASE NOTE: IF THE ACTIVE ORBITALS ARE CANONICALIZED BELOW,
 THE FOLLOWING CI EXPANSION COEFFICIENTS AND THE DENSITY DO NOT
 CORRESPOND TO THE PRINTED ORBITALS.  THE PRINTED EXPANSIONS MATCH
 THE ORBITALS USED DURING THE LAST ITERATION.  IF YOU WISH TO SEE
 CI EXPANSIONS BASED ON THE CANONICAL (OR NATURAL) ORBITALS, YOU
 MUST RUN A CI CALCULATION WITH THAT ORBITAL CHOICE READ IN $VEC.

 Averaged energy =     -55.749099223

 State #    1  Energy =     -55.889888712  S =  0.500

      Det      Coef    Occupancy (Ignoring core)
      ---      ----    --------- --------- -----
        1    0.936370  11110001110000
        2    0.054220  11101001110000
        5   -0.063531  01111001110000
        8   -0.132459  10110101110000
       17    0.126048  11010011110000
       36    0.147845  11110001101000
       71    0.088521  11110001011000
      386    0.108622  11110001010010
      393    0.050793  10110101010010
      701   -0.091764  11110001100001
      717    0.070133  11010011100001

 State #    2  Energy =     -55.732432899  S =  0.500

      Det      Coef    Occupancy (Ignoring core)
      ---      ----    --------- --------- -----
        1    0.162322  11110001110000
       36   -0.913481  11110001101000
       40    0.056613  01111001101000
       43    0.096050  10110101101000
       52   -0.068871  11010011101000
       71   -0.267627  11110001011000
      281   -0.053420  11110000101100
      456   -0.095225  11110001001010
      463   -0.053045  10110101001010

 State #    3  Energy =     -55.624976059  S =  0.500

      Det      Coef    Occupancy (Ignoring core)
      ---      ----    --------- --------- -----
       36   -0.280327  11110001101000
       71    0.926081  11110001011000
       78   -0.064886  10110101011000
       87    0.076453  11010011011000
      316    0.066793  11110000011100
      806    0.092880  11110001001001
      822   -0.072351  11010011001001

 DENSITY MATRIX OVER ACTIVE MO-S

             1           2           3           4           5

    1    1.9779675
    2   -0.0077141   1.6353989
    3    0.0124713   0.0004020   1.6339528
    4    0.0021219  -0.0010779   0.0024080   1.6546419
    5    0.0989182   0.0113477  -0.0204105   0.0396188   0.0264933
    6    0.0030854  -0.1523673  -0.0032697  -0.0159504  -0.0016805
    7    0.0019043  -0.0026173  -0.1364138   0.0265023   0.0045821

             6           7

    6    0.0341587
    7   -0.0020159   0.0373870

 FORMING THE "STANDARD FOCK OPERATOR" IN DIRECT AO INTEGRAL MODE...
 ONLY THE    1 CORE AND   21 VIRTUAL ORBITALS WILL BE CANONICALIZED

          ----------------------
          MCSCF NATURAL ORBITALS
          ----------------------

                      1          2          3          4          5
                  -15.9853     1.9836     1.6562     1.6499     1.6452
                     A          A          A          A          A   
    1  N  1  S    1.001246   0.008954  -0.010452   0.001030  -0.002289
    2  N  1  S   -0.001853   0.437947  -0.175542   0.041103  -0.059295
    3  N  1  S   -0.006332   0.298261  -0.277436   0.056745  -0.088521
    4  N  1  X    0.000041  -0.020779   0.084803   0.462533  -0.136649
    5  N  1  Y    0.000035   0.026935  -0.047893   0.128515   0.501305
    6  N  1  Z    0.001139   0.094819   0.589462  -0.056145   0.028944
    7  N  1  X   -0.000026   0.001073   0.054235   0.170996  -0.070762
    8  N  1  Y    0.000050  -0.003261  -0.045854   0.045228   0.249664
    9  N  1  Z   -0.000456   0.008524   0.384633  -0.026218  -0.005660
   10  N  1 XX    0.000305   0.000759  -0.011181   0.006013  -0.006687
   11  N  1 YY   -0.000117  -0.001655  -0.012750  -0.003311   0.005111
   12  N  1 ZZ   -0.000188   0.000895   0.023932  -0.002702   0.001576
   13  N  1 XY    0.000214   0.000669   0.000911   0.001687  -0.014987
   14  N  1 XZ   -0.000081  -0.001459   0.001596   0.021623  -0.007292
   15  N  1 YZ    0.000114   0.000831   0.000932   0.004861   0.024304
   16  H  2  S   -0.001958   0.209880   0.091442  -0.118013   0.364167
   17  H  2  S    0.000314   0.007740   0.020772  -0.015690   0.076743
   18  H  2  X   -0.000526   0.020394   0.010848   0.013289   0.020098
   19  H  2  Y    0.000751  -0.028287  -0.015464   0.019892  -0.018404
   20  H  2  Z    0.000500  -0.014831   0.019809   0.004381  -0.020225
   21  H  3  S   -0.001859   0.178573   0.087116  -0.294361  -0.229629
   22  H  3  S    0.000475  -0.000002   0.026298  -0.038902  -0.051853
   23  H  3  X   -0.000670   0.024216   0.010377  -0.014701  -0.026232
   24  H  3  Y   -0.000683   0.023694   0.008960  -0.029126  -0.000646
   25  H  3  Z    0.000419  -0.007079   0.020656   0.010702   0.010799
   26  H  4  S   -0.001986   0.177441   0.139923   0.352651  -0.064423
   27  H  4  S    0.000567  -0.000082   0.031126   0.044042  -0.018320
   28  H  4  X    0.001023  -0.034910  -0.017614  -0.034449  -0.001710
   29  H  4  Y    0.000183  -0.005959  -0.004547  -0.006128   0.020450
   30  H  4  Z    0.000396  -0.005206   0.018158  -0.016556   0.003863

                      6          7          8
                    0.0268     0.0196     0.0187
                     A          A          A   
    1  N  1  S   -0.098934  -0.199507  -0.105521
    2  N  1  S   -0.313760  -0.657155  -0.327519
    3  N  1  S    0.013962  -0.172200  -0.032610
    4  N  1  X   -0.266828   0.449447  -0.773158
    5  N  1  Y    0.726745  -0.144612  -0.430009
    6  N  1  Z   -0.117964  -0.627747  -0.228896
    7  N  1  X    0.002396   0.065874  -0.057553
    8  N  1  Y   -0.008968  -0.032695  -0.041148
    9  N  1  Z    0.034552   0.083546   0.044870
   10  N  1 XX    0.024788   0.023083  -0.018925
   11  N  1 YY   -0.022812  -0.029840   0.019731
   12  N  1 ZZ   -0.001976   0.006757  -0.000805
   13  N  1 XY    0.042509   0.004017   0.022976
   14  N  1 XZ    0.002425  -0.042249   0.037524
   15  N  1 YZ   -0.016380   0.021220   0.031609
   16  H  2  S   -0.528688   0.673402   0.150691
   17  H  2  S   -0.137739   0.100333   0.022278
   18  H  2  X   -0.019715   0.026343   0.043856
   19  H  2  Y    0.019510  -0.074444   0.000256
   20  H  2  Z    0.017584   0.006058  -0.000359
   21  H  3  S    0.570214   0.504911  -0.383946
   22  H  3  S    0.116457   0.065974  -0.098228
   23  H  3  X    0.052566   0.034979  -0.013313
   24  H  3  Y    0.026043   0.059576  -0.026941
   25  H  3  Z   -0.005642   0.021878  -0.004703
   26  H  4  S    0.389587   0.139551   0.774005
   27  H  4  S    0.066404  -0.010149   0.137626
   28  H  4  X   -0.034303  -0.032456  -0.082066
   29  H  4  Y   -0.023297  -0.001909  -0.008506
   30  H  4  Z   -0.003972   0.009016   0.016815

          ------------------------
          MCSCF OPTIMIZED ORBITALS
          ------------------------

                      1          2          3          4          5
                  -15.9853     0.0000     0.0000     0.0000     0.0000
                     A          A          A          A          A   
    1  N  1  S    1.001246  -0.003138  -0.004827   0.003229  -0.017001
    2  N  1  S   -0.001853   0.401680   0.009639  -0.013290  -0.197197
    3  N  1  S   -0.006332   0.296506   0.040976  -0.056411  -0.284973
    4  N  1  X    0.000041  -0.005602   0.399019  -0.031887   0.021775
    5  N  1  Y    0.000035   0.009125  -0.003944   0.446090  -0.019873
    6  N  1  Z    0.001139   0.052755   0.000542   0.002077   0.579081
    7  N  1  X   -0.000026   0.007816   0.179624  -0.032957   0.033064
    8  N  1  Y    0.000050  -0.013649  -0.019835   0.252946  -0.036993
    9  N  1  Z   -0.000456   0.009432   0.019976  -0.024550   0.386817
   10  N  1 XX    0.000305   0.002361   0.004424  -0.007275  -0.011306
   11  N  1 YY   -0.000117  -0.003173  -0.003725   0.006948  -0.012868
   12  N  1 ZZ   -0.000188   0.000812  -0.000699   0.000327   0.024174
   13  N  1 XY    0.000214   0.002464   0.008077  -0.016829   0.001242
   14  N  1 XZ   -0.000081  -0.002172   0.027274  -0.001275  -0.001214
   15  N  1 YZ    0.000114   0.001179   0.000772   0.026937   0.002059
   16  H  2  S   -0.001958   0.217577  -0.215082   0.376952   0.124394
   17  H  2  S    0.000314   0.007105  -0.035685   0.082079   0.024951
   18  H  2  X   -0.000526   0.021250   0.011246   0.025776   0.011177
   19  H  2  Y    0.000751  -0.030146   0.025279  -0.015309  -0.019376
   20  H  2  Z    0.000500  -0.013633   0.011524  -0.021108   0.018409
   21  H  3  S   -0.001859   0.207548  -0.258769  -0.343712   0.123117
   22  H  3  S    0.000475   0.004414  -0.029974  -0.072233   0.029960
   23  H  3  X   -0.000670   0.027039  -0.008430  -0.032889   0.012287
   24  H  3  Y   -0.000683   0.025844  -0.030925  -0.009669   0.013351
   25  H  3  Z    0.000419  -0.006690   0.009032   0.012349   0.020093
   26  H  4  S   -0.001986   0.207915   0.436722   0.012475   0.121598
   27  H  4  S    0.000567   0.003686   0.063665  -0.009734   0.028320
   28  H  4  X    0.001023  -0.038405  -0.040720  -0.009935  -0.016724
   29  H  4  Y    0.000183  -0.007344  -0.012171   0.019950  -0.003501
   30  H  4  Z    0.000396  -0.005164  -0.013731   0.000047   0.020052

                      6          7          8          9         10
                    0.0000     0.0000     0.0000     0.1521     0.2021
                     A          A          A          A          A   
    1  N  1  S    0.243157   0.034251  -0.017047  -0.149249  -0.007967
    2  N  1  S    0.808383   0.092446  -0.053407  -0.228784  -0.019470
    3  N  1  S    0.169774  -0.049434   0.051425   1.484285   0.005996
    4  N  1  X   -0.053637   0.973419  -0.006743   0.024201   0.119313
    5  N  1  Y    0.051392   0.087242   0.891672  -0.031182   0.058237
    6  N  1  Z    0.690514  -0.031385   0.070034  -0.224124  -0.020107
    7  N  1  X   -0.036941   0.094000   0.011877  -0.109186  -0.762232
    8  N  1  Y    0.040847   0.022222   0.035237   0.104511  -0.191261
    9  N  1  Z   -0.089945  -0.007472  -0.007579   0.507341   0.064088
   10  N  1 XX   -0.021624   0.018904   0.026097   0.063103  -0.051084
   11  N  1 YY    0.026169  -0.023257  -0.023217  -0.016711   0.041643
   12  N  1 ZZ   -0.004546   0.004353  -0.002880  -0.046391   0.009440
   13  N  1 XY   -0.023765  -0.030070   0.027472   0.038473  -0.015542
   14  N  1 XZ    0.024257  -0.048422  -0.006288  -0.034387  -0.106640
   15  N  1 YZ   -0.025039  -0.012907  -0.028429   0.036225  -0.018153
   16  H  2  S   -0.486064   0.300390  -0.613992   0.178378   0.226310
   17  H  2  S   -0.056132   0.062520  -0.142895  -0.703017  -0.811018
   18  H  2  X   -0.031459  -0.019149  -0.037369  -0.075457  -0.004053
   19  H  2  Y    0.058886  -0.035796   0.028103   0.058261   0.036855
   20  H  2  Z   -0.010451  -0.001165   0.013149   0.058372   0.039319
   21  H  3  S   -0.474955   0.348901   0.561874   0.328355   0.255940
   22  H  3  S   -0.058700   0.074573   0.128129  -0.935346  -1.008242
   23  H  3  X   -0.040442   0.009740   0.044689  -0.085606  -0.037057
   24  H  3  Y   -0.050280   0.037900   0.024153  -0.044391  -0.048128
   25  H  3  Z   -0.016176   0.016186  -0.005861   0.025776   0.070985
   26  H  4  S   -0.489192  -0.679030   0.024988   0.322354  -0.524147
   27  H  4  S   -0.056382  -0.136081   0.006080  -0.874305   1.873899
   28  H  4  X    0.064759   0.062809   0.005780   0.101568  -0.095678
   29  H  4  Y    0.010799   0.012374  -0.015769   0.020967  -0.025071
   30  H  4  Z   -0.012466  -0.010439  -0.012000   0.002520  -0.076848

                     11         12         13         14         15
                    0.2121     0.5379     0.6057     0.6398     0.7828
                     A          A          A          A          A   
    1  N  1  S    0.030587   0.062703   0.040565  -0.075785  -0.169562
    2  N  1  S    0.060100   0.071868   0.191453  -0.258847  -0.392702
    3  N  1  S   -0.199329  -0.455437   0.271941  -0.041145   0.666302
    4  N  1  X    0.042257   0.299759  -0.168803  -0.362036   0.078575
    5  N  1  Y    0.020947  -0.516968  -0.340350  -0.081591   0.044627
    6  N  1  Z    0.049994   0.371610  -0.432883   0.396770   0.148991
    7  N  1  X   -0.071905  -0.774946   0.639947   1.661477  -0.449263
    8  N  1  Y   -0.494111   1.157164   1.215192   0.259403  -0.258567
    9  N  1  Z   -0.144601  -0.470427   0.769517  -0.730262  -0.074562
   10  N  1 XX    0.020621   0.007358  -0.079285   0.005217  -0.106122
   11  N  1 YY   -0.014645   0.008534   0.038159   0.031206   0.140351
   12  N  1 ZZ   -0.005976  -0.015892   0.041126  -0.036422  -0.034228
   13  N  1 XY    0.088607  -0.021480   0.019187   0.033254   0.076520
   14  N  1 XZ    0.003725  -0.019753   0.007063  -0.048972   0.084245
   15  N  1 YZ   -0.082605   0.030067  -0.016947   0.006823   0.062169
   16  H  2  S   -0.567770  -0.175212  -0.585942   0.559013   0.060476
   17  H  2  S    1.974369  -0.861097  -0.418286   0.232515  -0.099147
   18  H  2  X    0.055477  -0.090885   0.064325   0.028052   0.350456
   19  H  2  Y   -0.070019   0.061410   0.088387  -0.053776   0.351610
   20  H  2  Z   -0.056053   0.065741   0.065054  -0.006372  -0.013700
   21  H  3  S    0.497854   0.312790   0.177992   0.753637  -0.060612
   22  H  3  S   -1.625963   0.503248   0.702897   0.289061  -0.322409
   23  H  3  X   -0.046095   0.006868   0.172163   0.131280   0.066073
   24  H  3  Y   -0.037657   0.059780  -0.036506   0.047777  -0.426212
   25  H  3  Z    0.029575  -0.074654   0.019757   0.031962  -0.210707
   26  H  4  S    0.103043   0.414198  -0.661205  -0.329044   0.085805
   27  H  4  S   -0.201023   0.511504  -0.162744  -0.779697   0.003852
   28  H  4  X   -0.022255  -0.062461   0.024143   0.162057  -0.163323
   29  H  4  Y    0.030127  -0.001816   0.126060   0.105145   0.200508
   30  H  4  Z   -0.014556  -0.067925   0.037199  -0.089960   0.228105

                     16         17         18         19         20
                    0.9714     1.0092     1.2756     1.4419     1.4890
                     A          A          A          A          A   
    1  N  1  S   -0.541439  -0.212863  -0.014600  -0.485538  -0.254453
    2  N  1  S   -1.149199  -0.449427  -0.029645  -1.013310  -0.516483
    3  N  1  S    2.308144   1.087792   0.048114   1.809833   1.120362
    4  N  1  X    0.054512   0.000233  -0.202209   0.021291  -0.052198
    5  N  1  Y   -0.046654  -0.053360  -0.140288  -0.016498   0.120810
    6  N  1  Z    0.163585   0.069671  -0.008970  -0.036777   0.010056
    7  N  1  X   -0.239890  -0.053277   0.856793   0.294989  -0.537357
    8  N  1  Y    0.247217   0.400883   0.435382  -0.078466   0.420493
    9  N  1  Z   -0.028545   0.348839  -0.008426   0.753433   0.547442
   10  N  1 XX   -0.076293   0.021330   0.075576   0.105269   0.049539
   11  N  1 YY   -0.139355   0.082485  -0.072742   0.138595  -0.050645
   12  N  1 ZZ    0.215648  -0.103815  -0.002835  -0.243865   0.001106
   13  N  1 XY    0.006035  -0.156811  -0.047806   0.003410   0.024334
   14  N  1 XZ    0.020671   0.065396   0.025333  -0.011661   0.051620
   15  N  1 YZ   -0.040754  -0.221657   0.039863   0.007340  -0.119103
   16  H  2  S   -0.455859  -0.274378   0.004117  -0.438635  -0.455465
   17  H  2  S   -0.335347  -0.242516   0.017250  -0.134441  -0.355240
   18  H  2  X   -0.001782  -0.281478   0.204580  -0.269801   0.095584
   19  H  2  Y   -0.137792   0.300816   0.056773  -0.019105   0.127375
   20  H  2  Z    0.313197  -0.460724  -0.008963  -0.331490   0.537395
   21  H  3  S   -0.344875  -0.065895   0.444596  -0.428052  -0.378909
   22  H  3  S   -0.285440  -0.058072   0.161716  -0.095410   0.013124
   23  H  3  X   -0.023117   0.137742  -0.561512  -0.270534   0.177004
   24  H  3  Y    0.079363  -0.217163   0.193696   0.307137  -0.178611
   25  H  3  Z    0.351031   0.162546  -0.361978  -0.395605  -0.419063
   26  H  4  S   -0.265324  -0.179645  -0.450382  -0.595744  -0.160691
   27  H  4  S   -0.304910  -0.159889  -0.208265  -0.225242   0.063513
   28  H  4  X    0.001471   0.202534  -0.100838  -0.145318   0.176865
   29  H  4  Y   -0.012176  -0.387583  -0.526580   0.461544  -0.415220
   30  H  4  Z    0.297509   0.037380   0.351430  -0.223365  -0.661214

                     21         22         23         24         25
                    1.6229     1.8428     1.9028     1.9655     2.1660
                     A          A          A          A          A   
    1  N  1  S   -0.093191  -0.081392   0.011173   0.161060   0.099785
    2  N  1  S   -0.187468  -0.135264  -0.006749   0.440410   0.195366
    3  N  1  S    0.362192   0.754888  -0.336660   1.115842  -0.404380
    4  N  1  X    0.035581   0.315846   0.520102  -0.060687  -0.109558
    5  N  1  Y   -0.164949  -0.192928   0.272365   0.199072   0.036202
    6  N  1  Z   -0.019295   0.001909  -0.063018   0.321404   0.007447
    7  N  1  X   -0.741995   0.060451   0.092800   0.118232  -0.017798
    8  N  1  Y   -0.501589   0.229814   0.024021  -0.228153  -0.020808
    9  N  1  Z    0.156455   0.292609  -0.148192   0.425118  -0.467906
   10  N  1 XX    0.045926  -0.105394  -0.148922  -0.197979  -0.028795
   11  N  1 YY    0.039655   0.186754   0.208932  -0.023582   0.825851
   12  N  1 ZZ   -0.085581  -0.081359  -0.060010   0.221561  -0.797056
   13  N  1 XY   -0.053656  -0.181911   0.164090  -0.018954  -0.201594
   14  N  1 XZ    0.042706  -0.091400  -0.158857   0.094991   0.317177
   15  N  1 YZ    0.128962   0.017398  -0.075588  -0.238430  -0.280433
   16  H  2  S   -0.190873  -0.306685   0.079247  -0.194981   0.150256
   17  H  2  S    0.142083   0.366858  -0.035763  -0.216644  -0.052116
   18  H  2  X    0.747432   0.156304   0.254973  -0.387115  -0.004901
   19  H  2  Y    0.248374  -0.723256   0.178067   0.633319  -0.233290
   20  H  2  Z   -0.233968  -0.097024  -0.058507   0.301490   0.647955
   21  H  3  S   -0.349764  -0.099523   0.079855  -0.262154   0.130120
   22  H  3  S   -0.336652  -0.257321   0.447557  -0.198809   0.005788
   23  H  3  X   -0.314632  -0.236669   0.457846  -0.711624  -0.109509
   24  H  3  Y    0.204287  -0.483071   0.790551  -0.014485   0.205438
   25  H  3  Z    0.552984  -0.266784  -0.299723  -0.016866   0.330559
   26  H  4  S    0.235205  -0.159851   0.068976  -0.281792   0.176778
   27  H  4  S    0.096506  -0.430930  -0.240824  -0.275242   0.122179
   28  H  4  X    0.167835   0.718075   0.515940   0.643109  -0.215694
   29  H  4  Y    0.043087   0.090029  -0.122581   0.441796  -0.021731
   30  H  4  Z   -0.486473   0.099253   0.396179  -0.022863   0.153672

                     26         27         28         29
                    2.3256     2.5750     2.6819     3.0311
                     A          A          A          A   
    1  N  1  S    0.054607  -0.082469   0.035655   0.002720
    2  N  1  S    0.089978  -0.008812   0.063378   0.068128
    3  N  1  S   -0.440179   2.334590  -0.083419   0.693297
    4  N  1  X    0.097883  -0.088743   0.503300   0.290732
    5  N  1  Y    0.032828   0.246911   0.251735  -0.403228
    6  N  1  Z   -0.036329   0.338563  -0.003812   0.051170
    7  N  1  X   -0.041702  -0.400555   1.320260   0.459543
    8  N  1  Y   -0.277182   0.646319   0.634247  -0.618550
    9  N  1  Z   -0.245743   0.619504  -0.054954  -0.012952
   10  N  1 XX    0.703622   0.671163   0.376699   0.842433
   11  N  1 YY   -0.567287  -0.028675  -0.372950  -0.408060
   12  N  1 ZZ   -0.136334  -0.642487  -0.003749  -0.434373
   13  N  1 XY   -0.661051   0.021519  -0.308227   1.232970
   14  N  1 XZ   -0.215201  -0.535880   1.117166   0.353485
   15  N  1 YZ   -0.536000   0.733851   0.545115  -0.586622
   16  H  2  S    0.209655  -1.298356   0.101833   0.996849
   17  H  2  S    0.106412  -0.518175   0.013330   0.324322
   18  H  2  X    0.530316  -0.453727  -0.150607   0.452433
   19  H  2  Y    0.138114   0.700224  -0.114434  -0.623479
   20  H  2  Z    0.157485   0.534961  -0.000367  -0.455627
   21  H  3  S    0.097302  -0.574763   1.073659  -0.840623
   22  H  3  S    0.049182  -0.058744   0.437498  -0.257184
   23  H  3  X    0.231396  -0.024725   0.646579  -0.529118
   24  H  3  Y   -0.023453  -0.382578   0.476672  -0.514302
   25  H  3  Z   -0.190825   0.287758  -0.186210   0.430293
   26  H  4  S    0.109420  -0.675749  -1.073861  -0.935140
   27  H  4  S   -0.009642  -0.139850  -0.447371  -0.276718
   28  H  4  X   -0.104793   0.487473   0.779909   0.733062
   29  H  4  Y    0.528256  -0.069604   0.260951   0.130509
   30  H  4  Z    0.266309   0.377582   0.104903   0.411716
 .....DONE WITH MCSCF ITERATIONS.....
 CPU     0: STEP CPU TIME=     8.52 TOTAL CPU TIME=          9.7 (      0.2 MIN)
 TOTAL WALL CLOCK TIME=          9.7 SECONDS, CPU UTILIZATION IS    99.90%

     ----------------------------------------------------------------
     PROPERTY VALUES FOR THE MCSCF SELF-CONSISTENT FIELD WAVEFUNCTION
     ----------------------------------------------------------------

          -----------------
          ENERGY COMPONENTS
          -----------------

         WAVEFUNCTION NORMALIZATION =       1.0000000000

                ONE ELECTRON ENERGY =     -94.5226799798
                TWO ELECTRON ENERGY =      27.2409839427
           NUCLEAR REPULSION ENERGY =      11.5325968137
                                      ------------------
                       TOTAL ENERGY =     -55.7490992234

 ELECTRON-ELECTRON POTENTIAL ENERGY =      27.2409839427
  NUCLEUS-ELECTRON POTENTIAL ENERGY =    -150.3676145781
   NUCLEUS-NUCLEUS POTENTIAL ENERGY =      11.5325968137
                                      ------------------
             TOTAL POTENTIAL ENERGY =    -111.5940338217
               TOTAL KINETIC ENERGY =      55.8449345982
                 VIRIAL RATIO (V/T) =       1.9982839021

          ---------------------------------------
          MULLIKEN AND LOWDIN POPULATION ANALYSES
          ---------------------------------------

     ATOMIC MULLIKEN POPULATION IN EACH MOLECULAR ORBITAL

                      1          2          3          4          5

                  2.000000   1.983562   1.656237   1.649853   1.645180

    1             2.000906   1.319059   1.540730   0.913964   1.076208
    2            -0.000331   0.271783   0.033279   0.051772   0.379715
    3            -0.000266   0.198358   0.025530   0.280505   0.168130
    4            -0.000309   0.194362   0.056698   0.403613   0.021128

                      6          7          8

                  0.026801   0.019640   0.018727

    1             0.012685   0.010603   0.010040
    2             0.004872   0.005532   0.000264
    3             0.006300   0.003326   0.001575
    4             0.002944   0.000179   0.006849
 WARNING! MCSCF POPULATIONS SHOWN ABOVE ARE FOR THE NATURAL ORBITALS.
 IGNORE THE ABOVE DATA FOR MCSCF FUNCTIONS WHICH ARE NOT OF -FORS- TYPE.
 THE FOLLOWING POPULATIONS ARE CORRECT FOR ANY MCSCF WAVEFUNCTION.

               ----- POPULATIONS IN EACH AO -----
                             MULLIKEN      LOWDIN
              1  N  1  S      2.00259     1.89736
              2  N  1  S      0.82528     0.57644
              3  N  1  S      0.64593     0.39690
              4  N  1  X      0.66733     0.58686
              5  N  1  Y      0.71083     0.64589
              6  N  1  Z      0.88167     0.82513
              7  N  1  X      0.26460     0.38356
              8  N  1  Y      0.34694     0.42382
              9  N  1  Z      0.52076     0.55802
             10  N  1 XX      0.00057     0.17890
             11  N  1 YY      0.00152     0.15579
             12  N  1 ZZ      0.00412     0.14245
             13  N  1 XY      0.00621     0.01297
             14  N  1 XZ      0.00585     0.01249
             15  N  1 YZ      0.00000     0.01056
             16  H  2  S      0.63898     0.49362
             17  H  2  S      0.04781     0.14277
             18  H  2  X      0.01726     0.03069
             19  H  2  Y      0.02454     0.04523
             20  H  2  Z      0.01830     0.04326
             21  H  3  S      0.58867     0.45626
             22  H  3  S      0.03824     0.14515
             23  H  3  X      0.02257     0.04070
             24  H  3  Y      0.02072     0.03773
             25  H  3  Z      0.01325     0.03365
             26  H  4  S      0.59632     0.46464
             27  H  4  S      0.03181     0.14408
             28  H  4  X      0.03521     0.05808
             29  H  4  Y      0.00956     0.02315
             30  H  4  Z      0.01256     0.03383

          ----- MULLIKEN ATOMIC OVERLAP POPULATIONS -----
          (OFF-DIAGONAL ELEMENTS NEED TO BE MULTIPLIED BY 2)

             1           2           3           4

    1    5.9752486
    2    0.3013492   0.4584655
    3    0.2972080  -0.0074433   0.3997961
    4    0.3103881  -0.0054856  -0.0061050   0.3866668

          TOTAL MULLIKEN AND LOWDIN ATOMIC POPULATIONS
       ATOM         MULL.POP.    CHARGE          LOW.POP.     CHARGE
    1 N             6.884194    0.115806         6.807140    0.192860
    2 H             0.746886    0.253114         0.755582    0.244418
    3 H             0.683456    0.316544         0.713491    0.286509
    4 H             0.685464    0.314536         0.723786    0.276214

          MULLIKEN SPHERICAL HARMONIC POPULATIONS
       ATOM           S       P       D      F      G      H      I    TOTAL
    1 N             3.47    3.39    0.02   0.00   0.00   0.00   0.00    6.88
    2 H             0.69    0.06    0.00   0.00   0.00   0.00   0.00    0.75
    3 H             0.63    0.06    0.00   0.00   0.00   0.00   0.00    0.68
    4 H             0.63    0.06    0.00   0.00   0.00   0.00   0.00    0.69

          ---------------------
          ELECTROSTATIC MOMENTS
          ---------------------

 POINT   1           X           Y           Z (BOHR)    CHARGE
                -0.000002    0.000002   -0.177185        1.00 (A.U.)
         DX          DY          DZ         /D/  (DEBYE)
    -0.328070    0.320361    2.142478    2.190999
 ...... END OF PROPERTY EVALUATION ......
 CPU     0: STEP CPU TIME=     0.00 TOTAL CPU TIME=          9.7 (      0.2 MIN)
 TOTAL WALL CLOCK TIME=          9.7 SECONDS, CPU UTILIZATION IS    99.90%

     -------------------------------------------------
     GMC-PT/GMC-QDPT or general MCSCF input parameters
     -------------------------------------------------
 # of frozen core orbs. =         0 ->         0
 # of doubly occ. orbs. =         1
 # of active      orbs. =         7
 # of virtual     orbs. =        21
 # of active electrons  =         7
 # of states in CI      =         3
 Highest state in CI    =         3
 kstate =  1 1 1
 avecoe =  0.333 0.333 0.333
 State symmetry           = A           
 Assigned symmetry number = 1

 <<<Act. MO sym.: 1111111

 <<<Division of 1-ext.:  0
 <<<Division of 2-ext.:  0

     ------------------------
     Orbital canonicalization
     ------------------------

 MOs are canonicalized for core, virtual, and invariant-active orbital spaces.
 This is a part of the GMC-QDPT calculation.
 SCHWARZ INEQUALITY OVERHEAD:       465 INTEGRALS, T=        0.01
 DIRECT TRANSFORMATION SKIPS AO INTEGRAL STORAGE ON DISK.

 Averaged energy =     -55.749099223

 State #    1  Energy =     -55.889888712  S =  0.500
 State #    2  Energy =     -55.732432899  S =  0.500
 State #    3  Energy =     -55.624976059  S =  0.500

 Orbital energies for filled orbital space
  -15.985259
 Orbital energies for active orbital space
   -1.523476  -0.980367  -0.870208  -0.748752   0.391298
    0.415027   0.243471
 Orbital energies for external orbital space
    0.152086   0.202081   0.212051   0.537942   0.605716
    0.639761   0.782803   0.971354   1.009221   1.275556
    1.441935   1.488962   1.622885   1.842763   1.902758
    1.965508   2.166007   2.325609   2.575013   2.681855
    3.031096

 Zero values mean non-canonical orbitals.
 ... done with orbital canonicalization ...
 CPU     0: STEP CPU TIME=     0.56 TOTAL CPU TIME=         10.3 (      0.2 MIN)
 TOTAL WALL CLOCK TIME=         10.3 SECONDS, CPU UTILIZATION IS    99.90%

     --------------------------------------------
     PARTIAL TWO ELECTRON INTEGRAL TRANSFORMATION
     --------------------------------------------

 NUMBER OF CORE MOLECULAR ORBITALS     =    0
 NUMBER OF OCCUPIED MOLECULAR ORBITALS =    8
 TOTAL NUMBER OF MOLECULAR ORBITALS    =   29
 TOTAL NUMBER OF ATOMIC ORBITALS       =   30
 THRESHOLD FOR KEEPING TRANSFORMED 2E- INTEGRALS = 1.000E-09
 AO INTEGRALS WILL BE CALCULATED IN DIRECT MODE...
 DIRECT TRANSFORMATION SKIPS AO INTEGRAL STORAGE ON DISK.
 SCHWARZ INEQUALITY OVERHEAD:       465 INTEGRALS, T=        0.00

 PLAN A: REQUIREMENTS FOR FULLY IN-MEMORY TRANSFORMATION:
 # OF WORDS AVAILABLE =            100000000
 # OF WORDS NEEDED    =               221798

 PARALLEL ONLY WORKS WITH THE SEGMENTED ALGORITHM.
 ADJUSTING MEMORY TO USE SEGMENTED ALGORITHM.


 PLAN B: REQUIREMENTS FOR THE SEGMENTED TRANSFORMATION:
       MINIMUM=         124148 WORDS FOR 1 MOLECULAR ORBITAL PER PASS
       MAXIMUM=         221798 WORDS FOR ALL MOLECULAR ORBITALS IN 1 PASS
              (          13950 EXTRA WORDS INCLUDES 1 EXTRA ORBITAL/PASS)
 THIS RUN USES=         221798 WORDS,
 DISTRIBUTING   1 PASSES EACH CONTAINING     8 ORBITALS OVER   1 PROCESSORS.

 CHOOSING SEGMENTED PARTIAL TRANSFORMATION...
 DIRECT TRANSFORMATION SKIPS AO INTEGRAL STORAGE ON DISK.
 PASS #   1 TOOK        0.04 SECONDS.
 TOTAL NUMBER OF TRANSFORMED 2E- INTEGRALS KEPT =        29226
 ... END OF INTEGRAL TRANSFORMATION ...
 CPU     0: STEP CPU TIME=     0.04 TOTAL CPU TIME=         10.3 (      0.2 MIN)
 TOTAL WALL CLOCK TIME=         10.3 SECONDS, CPU UTILIZATION IS    99.81%

     --------     ------------------------------------------
     GMC-QDPT     Program written by H.Nakano (Kyushu Univ.)
     --------     ------------------------------------------

 *** Reference space

 Reference type: ORMAS (= Occupation restricted multiple active space)
 # of orbitals          =  7
 # of minimum electrons =  7
 # of maximum electrons =  7
 State symmetry    =    1 (input)
 2*Sz              =    1 (input)
 Spin multiplicity =    2 (input)
 Dimension of reference space =      1225  (from      3432 walks)

 Dimension of reference space =      1225  (from      1225 walks)

 <<<Ionized spaces for Ref-CI:
      0:         1225 /   -1-0:         1960 /  0-1-0:         2891

 ***                    ***
 *** Reference space CI ***
 ***                    ***

 Converged after   26 iterations

 Reference wavefunctions:

 State #    1  Energy =     -55.889888712  S =  0.500

      Det      Coef    Occupancy (Ignoring core)
      ---      ----    --------- --------- -----
        1   -0.977728  11110001110000
      393   -0.060709  10110101010010
      717   -0.067641  11010011100001

 State #    2  Energy =     -55.732432899  S =  0.500

      Det      Coef    Occupancy (Ignoring core)
      ---      ----    --------- --------- -----
       36   -0.982251  11110001101000
      463   -0.061133  10110101001010

 State #    3  Energy =     -55.624976059  S =  0.500

      Det      Coef    Occupancy (Ignoring core)
      ---      ----    --------- --------- -----
       71    0.980626  11110001011000
      822   -0.068250  11010011001001

 Davidson method: CPU/Wall time =           0.39 /           0.40 sec.

 Oscillator strength (invalid if E(1)/=E(GS)):
 -----------------------------------------
   State                        f
 -----------------------------------------
     2     F(REF-CI)=        0.0012950401
     3     F(REF-CI)=        0.0015251680
 -----------------------------------------

 Dipole moment matrix elements, x, y, z, in A.U.

 Dimension of ionized spaces for PT:
 (N-2) space:         1715 /  (N-1) space:         2842 /  N space:         2891
 (N+1) space:         2842 /  (N+2) space:         1715

 <<<Ionized spaces for internal:
         0:         1225 /      -1-0:         1960 /     0-1-0:         2891
  -1-0-1-0:         2842 / 0-1-0-1-0:         3381

 Diagonal elements of averaged one-particle density matrix:
       2       3       4       5       6       7       8
  0.9939  0.9885  0.9870  0.9928  0.0110  0.0111  0.0157
  0.9895  0.6611  0.6583  0.6632  0.0089  0.0079  0.0111

 Orbital energies:
 -------- Doubly-occupied orbitals (highest several orbs.) -------
             1
 -1.598526D+01
 -------- Active orbitals ----------------------------------------
             2            3            4            5            6
 -1.523476D+00-9.803671D-01-8.702079D-01-7.487523D-01 3.912979D-01
             7            8
  4.150268D-01 2.434711D-01
 -------- External orbitals (lowest several orbs.) ---------------
             9           10           11           12           13
  1.520862D-01 2.020813D-01 2.120513D-01 5.379418D-01 6.057157D-01
            14           15           16           17           18
  6.397613D-01 7.828028D-01 9.713545D-01 1.009221D+00 1.275556D+00

 *** Quasi-degeneracy checking

 === Det (|Ci| > 1.0D-01 and dE < 5.0D-03)

 # of small denominators (single excitations)
 State       dEmin  dE < 5.0D-03  dE < 5.0D-04  dE < 5.0D-05  dE < 5.0D-06
 ----- ----------- ------------- ------------- ------------- -------------
     1    5.00D-03             0             0             0             0
     2    5.00D-03             0             0             0             0
     3    5.00D-03             0             0             0             0

 # of small denominators (double excitations)
 State       dEmin  dE < 5.0D-03  dE < 5.0D-04  dE < 5.0D-05  dE < 5.0D-06
 ----- ----------- ------------- ------------- ------------- -------------
     1    5.00D-03             0             0             0             0
     2    5.00D-03             0             0             0             0
     3    5.00D-03             0             0             0             0

 *** Zeroth-Order Setup (Granovsky's zeroth-order vectors)
 Zeroth-order effective Hamiltonian
  (= Sum_i e(i)*<I|a+(i)a(i)|J> ):
                   1            2            3
     1 -7.394419D+00
     2 -9.901640D-03-7.293901D+00
     3  1.350393D-03-1.716123D-03-7.177242D+00

 Zeroth-order vectors:
 State #    1
       MC st            1           2           3
       Coeff    9.953D-01   9.701D-02  -5.398D-03
 State #    2
       MC st            2           1           3
       Coeff   -9.952D-01   9.691D-02  -1.589D-02
 State #    3
       MC st            3           2           1
       Coeff    9.999D-01  -1.529D-02   6.913D-03

 *** GMC-QDPT computation

 (Integral reading:  CPU/Wall time =           0.00 /           0.00 sec.)

 One-external:
   0 -ionized terms: CPU/Wall time =           0.03 /           0.03 sec.
 (-1)-ionized terms: CPU/Wall time =           0.09 /           0.09 sec.
 (+1)-ionized terms: CPU/Wall time =           0.02 /           0.02 sec.
 (+1)-ionized terms: CPU/Wall time =           0.01 /           0.01 sec.
 (+2)-ionized terms: CPU/Wall time =           0.00 /           0.00 sec.

 Internal:
 # of macro loops for internal contribution =         1 (input)
 Loop:    1
 Dimension of internal CISD space     =         0  (after screening)
 Space construction: CPU/Wall time =           0.02 /           0.01 sec.
 Internal terms:     CPU/Wall time =           0.00 /           0.00 sec.

 Two-external:
   0 -ionized terms: CPU/Wall time =           0.06 /           0.06 sec.
 (-1)-ionized terms: CPU/Wall time =           0.99 /           0.99 sec.
 (-2)-ionized terms: CPU/Wall time =           0.17 /           0.17 sec.

 Total time:         CPU/Wall time =           1.39 /           1.38 sec.

 ***                  ***
 *** GMC-QDPT Results ***
 ***                  ***

 Diagonal elements of effective Hamiltonian:
 Heff(  1) =   -55.98649213
 Heff(  2) =   -55.84232013
 Heff(  3) =   -55.73598470

 Off-diagonal elements of effective Hamiltonian:
                   1            2
     2 -1.349977D-02
     3 -1.410643D-03-1.675144D-03

 ******** GMC-QDPT energies ********
 ----------------------------------------------------------------------------
   State                        1st order                           2nd order
 ----------------------------------------------------------------------------
     1     E(REF-CI)=      -55.8898887123   E(GMC-QDPT2)=      -55.9877549665
     2     E(REF-CI)=      -55.7324328994   E(GMC-QDPT2)=      -55.8410894452
     3     E(REF-CI)=      -55.6249760586   E(GMC-QDPT2)=      -55.7359525536
 ----------------------------------------------------------------------------

 Excitation energies (invalid if E(1)/=E(GS)):
 ----------------------------------------------------------------------------
   State                        1st order                           2nd order
 ----------------------------------------------------------------------------

     TZ Sorted GMC-PT ENERGIES:
         1      -55.9877549665
         2      -55.8410894452
         3      -55.7359525536
     2     E(REF-CI)=        4.2845931 eV   E(GMC-QDPT2)=        3.9909742 eV
     3     E(REF-CI)=        7.2086442 eV   E(GMC-QDPT2)=        6.8518962 eV
 ----------------------------------------------------------------------------

 Main characters of perturbed GMC-QDPT states:

 State #    1  Energy =     -55.987754966  S =  0.500

      Det      Coef    Occupancy (Ignoring core)
      ---      ----    --------- --------- -----
        1    0.977927  11110001110000
      393    0.060706  10110101010010
      717    0.067596  11010011100001

 State #    2  Energy =     -55.841089445  S =  0.500

      Det      Coef    Occupancy (Ignoring core)
      ---      ----    --------- --------- -----
       36   -0.982444  11110001101000
      463   -0.061142  10110101001010

 State #    3  Energy =     -55.735952554  S =  0.500

      Det      Coef    Occupancy (Ignoring core)
      ---      ----    --------- --------- -----
       71    0.980634  11110001011000
      822   -0.068253  11010011001001

 <<<Max |V/de| = 2.264D-02  Thresh = 1.000D+00

 Oscillator strength (invalid if E(1)/=E(GS)):
 ----------------------------------------------------------------------------
   State                        1st order                           2nd order
 ----------------------------------------------------------------------------
     2     F(REF-CI)=        0.0012950401     F(GMC-PT2)=        0.0012524013
     3     F(REF-CI)=        0.0015251680     F(GMC-PT2)=        0.0014878395
 ----------------------------------------------------------------------------

 Dipole moment matrix elements, x, y, z, in A.U.
States    1    1       -0.1588229166        0.1483160786        0.7418708301
States    1    2       -0.0172508719        0.0216918763        0.1097297580
States    1    3       -0.0817912374       -0.0348493132       -0.0309653925
States    2    1       -0.0172508719        0.0216918763        0.1097297580
States    2    2       -0.0173562600        0.1400157021        0.2762014623
States    2    3        0.1836447882        0.1734258685        0.0014699333
States    3    1       -0.0817912374       -0.0348493132       -0.0309653925
States    3    2        0.1836447882        0.1734258685        0.0014699333
States    3    3       -0.3790042512        0.2759365930        0.2653726423

 Oscillator strength (valid only when positive): 
 ----------------------------------------------------------------------------
  States                        1st order                           2nd order
 ----------------------------------------------------------------------------
  1  1     F(REF-CI)=        0.0000000000     F(GMC-PT2)=        0.0000000000
  1  2     F(REF-CI)=       -0.0012950401     F(GMC-PT2)=       -0.0012524013
  1  3     F(REF-CI)=       -0.0015251680     F(GMC-PT2)=       -0.0014878395
  2  1     F(REF-CI)=        0.0012950401     F(GMC-PT2)=        0.0012524013
  2  2     F(REF-CI)=        0.0000000000     F(GMC-PT2)=        0.0000000000
  2  3     F(REF-CI)=       -0.0045885124     F(GMC-PT2)=       -0.0044721099
  3  1     F(REF-CI)=        0.0015251680     F(GMC-PT2)=        0.0014878395
  3  2     F(REF-CI)=        0.0045885124     F(GMC-PT2)=        0.0044721099
  3  3     F(REF-CI)=        0.0000000000     F(GMC-PT2)=        0.0000000000
 CPU     0: STEP CPU TIME=     1.86 TOTAL CPU TIME=         12.2 (      0.2 MIN)
 TOTAL WALL CLOCK TIME=         12.2 SECONDS, CPU UTILIZATION IS    99.92%

     !!! DIABATIZATION FOR REF CI STATES !!!

 *******************************************************
          $DMO GROUP FOUND IN THE INPUT.
        DIABATIZATION OF ADIABATIC STATES BEGINS.
     PROGRAMMED BY TAO ZENG (CARLETON UNIVERSITY).
               Email: toby.zeng@carleton.ca
     See T. Zeng, J. Chem. Phys. 2017, 146, 144103
 *******************************************************

 *************************************************************************
     STEP 1: TRANSFORMATION OF ADIABATIC STATES TO THE DMO REPRESENTATION
         See Atchity and Ruedenberg, J. Chem. Phys. 1999, 111, 2910
 *************************************************************************

Read in Diabatic Molecualr Orbitals:

                      1          2          3          4          5

    1  N  1  S    0.008609   0.000000   0.000000  -0.013219   0.279491
    2  N  1  S    0.442914  -0.000000   0.000000  -0.184329   0.867803
    3  N  1  S    0.276913   0.000000  -0.000000  -0.288315   0.144236
    4  N  1  X   -0.000000   0.493155  -0.024636  -0.000000  -0.000000
    5  N  1  Y    0.000000   0.024636   0.493155  -0.000000   0.000000
    6  N  1  Z    0.090197   0.000000   0.000000   0.593421   0.705309
    7  N  1  X   -0.000000   0.210628  -0.010522   0.000000   0.000000
    8  N  1  Y    0.000000   0.010522   0.210628  -0.000000  -0.000000
    9  N  1  Z   -0.004381   0.000000   0.000000   0.381592  -0.106092
   10  N  1 XX   -0.000457   0.010719  -0.000535  -0.012387   0.006153
   11  N  1 YY   -0.000457  -0.010719   0.000535  -0.012387   0.006153
   12  N  1 ZZ    0.000914  -0.000000   0.000000   0.024773  -0.012306
   13  N  1 XY    0.000000  -0.000618  -0.012377  -0.000000   0.000000
   14  N  1 XZ   -0.000000   0.026529  -0.001325  -0.000000   0.000000
   15  N  1 YZ    0.000000   0.001325   0.026529  -0.000000   0.000000
   16  H  2  S    0.194462  -0.176074   0.343485   0.112865  -0.523343
   17  H  2  S    0.003574  -0.023812   0.046452   0.024014  -0.054445
   18  H  2  X    0.018760   0.009101   0.022834   0.009336  -0.039151
   19  H  2  Y   -0.032493   0.022287  -0.020044  -0.016171   0.067811
   20  H  2  Z   -0.009251   0.008464  -0.016511   0.018769  -0.010566
   21  H  3  S    0.194462  -0.209430  -0.324227   0.112865  -0.523343
   22  H  3  S    0.003574  -0.028322  -0.043847   0.024014  -0.054445
   23  H  3  X    0.018760   0.006781  -0.023627   0.009336  -0.039151
   24  H  3  Y    0.032493  -0.024174  -0.017723   0.016171  -0.067811
   25  H  3  Z   -0.009251   0.010067   0.015585   0.018769  -0.010566
   26  H  4  S    0.194462   0.385503  -0.019258   0.112865  -0.523343
   27  H  4  S    0.003574   0.052134  -0.002604   0.024014  -0.054445
   28  H  4  X   -0.037519  -0.032295   0.001613  -0.018672   0.078302
   29  H  4  Y    0.000000   0.001067   0.021353  -0.000000   0.000000
   30  H  4  Z   -0.009251  -0.018530   0.000926   0.018769  -0.010566

                      6          7

    1  N  1  S    0.000000  -0.000000
    2  N  1  S    0.000000  -0.000000
    3  N  1  S   -0.000000   0.000000
    4  N  1  X   -0.930415  -0.002083
    5  N  1  Y   -0.002083   0.930415
    6  N  1  Z   -0.000000   0.000000
    7  N  1  X   -0.046866  -0.000105
    8  N  1  Y   -0.000105   0.046866
    9  N  1  Z   -0.000000   0.000000
   10  N  1 XX    0.001538   0.000003
   11  N  1 YY   -0.001538  -0.000003
   12  N  1 ZZ   -0.000000   0.000000
   13  N  1 XY   -0.000004   0.001776
   14  N  1 XZ    0.039985   0.000090
   15  N  1 YZ    0.000090  -0.039985
   16  H  2  S   -0.362630  -0.631354
   17  H  2  S   -0.065964  -0.114846
   18  H  2  X    0.002763  -0.037520
   19  H  2  Y    0.037435   0.040736
   20  H  2  Z    0.001882   0.003276
   21  H  3  S   -0.365454   0.629724
   22  H  3  S   -0.066477   0.114549
   23  H  3  X    0.002595   0.037532
   24  H  3  Y   -0.037617   0.040567
   25  H  3  Z    0.001896  -0.003268
   26  H  4  S    0.728084   0.001630
   27  H  4  S    0.132441   0.000297
   28  H  4  X   -0.062317  -0.000140
   29  H  4  Y    0.000055  -0.024345
   30  H  4  Z   -0.003778  -0.000008

NUMBER OF SUB ACTIVE SPACES:   1
ROTATE ACTIVE MOS TO DMOS IN EACH SUB-SPACE

SPACE  1:

OVERLAP BETWEEN ORTHONORMAL AND PRE-ORTHONORMAL REF. DMOS

             1           2           3           4           5

    1    0.9906258  -0.0127265   0.0189678  -0.0031864   0.0016551
    2   -0.0127265   1.0228950   0.0260100  -0.0185791   0.0357473
    3    0.0189678   0.0260100   0.9475630   0.0226539  -0.0357104
    4   -0.0031864  -0.0185791   0.0226539   0.9978841  -0.0044789
    5    0.0016551   0.0357473  -0.0357104  -0.0044789   1.0530622
    6    0.0024374   0.0269114   0.0240767  -0.0229550   0.0022481
    7    0.0016255  -0.0200335   0.0348293  -0.0202139  -0.0244911

             6           7

    1    0.0024374   0.0016255
    2    0.0269114  -0.0200335
    3    0.0240767   0.0348293
    4   -0.0229550  -0.0202139
    5    0.0022481  -0.0244911
    6    1.0101423   0.0155636
    7    0.0155636   1.0367531
REFERENCE DMOS AFTER ORTHONORMALIZATION:

                      1          2          3          4          5

    1  N  1  S    0.007880  -0.009554   0.010252  -0.012348   0.266146
    2  N  1  S    0.444281  -0.026799   0.026911  -0.180592   0.824772
    3  N  1  S    0.278187  -0.006552   0.006913  -0.287942   0.135707
    4  N  1  X    0.009115   0.508029  -0.017489  -0.011245  -0.015397
    5  N  1  Y   -0.010423   0.028397   0.489335   0.006792   0.036270
    6  N  1  Z    0.091472  -0.011519   0.008281   0.598400   0.673440
    7  N  1  X    0.003123   0.208133  -0.016111   0.003135  -0.007374
    8  N  1  Y   -0.004248   0.005148   0.221397  -0.004279   0.008220
    9  N  1  Z   -0.002659   0.010630  -0.013584   0.382769  -0.099823
   10  N  1 XX   -0.000376   0.010049  -0.000365  -0.012170   0.005438
   11  N  1 YY   -0.000676  -0.010937   0.001468  -0.012667   0.006207
   12  N  1 ZZ    0.001052   0.000889  -0.001102   0.024837  -0.011645
   13  N  1 XY    0.000247  -0.000212  -0.013170   0.000344  -0.000389
   14  N  1 XZ    0.000293   0.025057  -0.003161   0.001434  -0.001033
   15  N  1 YZ   -0.000508  -0.000265   0.029509  -0.001479   0.000084
   16  H  2  S    0.189998  -0.163739   0.374810   0.079100  -0.492564
   17  H  2  S    0.002786  -0.022990   0.052982   0.018460  -0.051540
   18  H  2  X    0.018756   0.009196   0.023169   0.008194  -0.037579
   19  H  2  Y   -0.032462   0.019289  -0.020727  -0.013530   0.063910
   20  H  2  Z   -0.008794   0.009383  -0.018591   0.019469  -0.010797
   21  H  3  S    0.202642  -0.151987  -0.376916   0.121536  -0.489383
   22  H  3  S    0.004462  -0.020229  -0.050761   0.025404  -0.049889
   23  H  3  X    0.019643   0.009761  -0.028688   0.010887  -0.037621
   24  H  3  Y    0.033171  -0.018426  -0.022144   0.016135  -0.063523
   25  H  3  Z   -0.009433   0.009895   0.015630   0.018536  -0.009828
   26  H  4  S    0.202213   0.382729  -0.075380   0.136574  -0.513997
   27  H  4  S    0.004309   0.050211  -0.010198   0.027989  -0.053944
   28  H  4  X   -0.038509  -0.033645   0.008269  -0.020698   0.075913
   29  H  4  Y   -0.000414  -0.000058   0.023474  -0.001030   0.000230
   30  H  4  Z   -0.009500  -0.017529   0.000938   0.018320  -0.009312

                      6          7

    1  N  1  S   -0.000967   0.005520
    2  N  1  S   -0.007154   0.013951
    3  N  1  S   -0.007459  -0.003091
    4  N  1  X   -0.934771   0.021830
    5  N  1  Y   -0.027988   0.882967
    6  N  1  Z    0.011576   0.026758
    7  N  1  X   -0.051555   0.005118
    8  N  1  Y   -0.006210   0.038077
    9  N  1  Z    0.008881   0.005637
   10  N  1 XX    0.000974   0.000087
   11  N  1 YY   -0.001561  -0.000340
   12  N  1 ZZ    0.000586   0.000253
   13  N  1 XY    0.000291   0.002144
   14  N  1 XZ    0.039025   0.000094
   15  N  1 YZ   -0.000030  -0.039590
   16  H  2  S   -0.351421  -0.629844
   17  H  2  S   -0.063685  -0.112904
   18  H  2  X    0.002742  -0.037589
   19  H  2  Y    0.036034   0.041116
   20  H  2  Z    0.002481   0.004067
   21  H  3  S   -0.354833   0.612944
   22  H  3  S   -0.065111   0.112090
   23  H  3  X    0.002713   0.036605
   24  H  3  Y   -0.036390   0.038825
   25  H  3  Z    0.001759  -0.003368
   26  H  4  S    0.716273  -0.009048
   27  H  4  S    0.130779  -0.001100
   28  H  4  X   -0.061558   0.001312
   29  H  4  Y   -0.000153  -0.024283
   30  H  4  Z   -0.002833  -0.000184

 -------------------------------------------
       MAXIMIZING MORMO OVERLAP TERM        
 -------------------------------------------
   SWEEP    VALUE       PROGRESS
     0     5.87593
     1     6.96737     1.09143858
     2     6.98244     0.01506667
     3     6.98244     0.00000044
     4     6.98244     0.00000000
     5     6.98244     0.00000000
 THE ROTATION IS DONE
FLIPPING SIGN FOR ORBITAL   7
ACTIVE ORBITALS AFTER MORMO:

                      1          2          3          4          5

    1  N  1  S    0.007351  -0.012930   0.015508  -0.012369   0.243624
    2  N  1  S    0.435529  -0.028363   0.037660  -0.185368   0.796142
    3  N  1  S    0.302227   0.018038  -0.037127  -0.281803   0.164383
    4  N  1  X    0.004039   0.503420  -0.010479  -0.018177  -0.005829
    5  N  1  Y   -0.001027   0.035217   0.467530   0.019055   0.023461
    6  N  1  Z    0.086888  -0.019991   0.019359   0.597887   0.671217
    7  N  1  X    0.010147   0.190495  -0.035240   0.025192  -0.025912
    8  N  1  Y   -0.017484  -0.014548   0.256649  -0.028539   0.030137
    9  N  1  Z    0.009573   0.031026  -0.039292   0.382772  -0.096605
   10  N  1 XX    0.001530   0.007748  -0.006874  -0.011840  -0.020618
   11  N  1 YY   -0.002370  -0.008188   0.007273  -0.011965   0.025591
   12  N  1 ZZ    0.000840   0.000440  -0.000398   0.023805  -0.004973
   13  N  1 XY    0.001604   0.006333  -0.018470   0.001863  -0.023913
   14  N  1 XZ   -0.000971   0.020524  -0.002373   0.000120   0.024166
   15  N  1 YZ   -0.000358   0.000196   0.024742   0.001566  -0.026281
   16  H  2  S    0.191224  -0.169622   0.357014   0.094908  -0.507055
   17  H  2  S    0.003725  -0.028259   0.078846   0.019674  -0.058540
   18  H  2  X    0.019660   0.009892   0.022858   0.010006  -0.033347
   19  H  2  Y   -0.027394   0.019002  -0.013749  -0.016502   0.060837
   20  H  2  Z   -0.013395   0.012379  -0.022263   0.017936  -0.008939
   21  H  3  S    0.190550  -0.187190  -0.337322   0.113329  -0.476950
   22  H  3  S    0.003008  -0.016001  -0.070062   0.029054  -0.056627
   23  H  3  X    0.025759  -0.004825  -0.033170   0.011523  -0.040872
   24  H  3  Y    0.023621  -0.023800  -0.009557   0.011849  -0.051595
   25  H  3  Z   -0.007209   0.012024   0.011194   0.019163  -0.015868
   26  H  4  S    0.189513   0.383274  -0.038742   0.120957  -0.501335
   27  H  4  S    0.001780   0.051623  -0.018424   0.029724  -0.057863
   28  H  4  X   -0.035748  -0.036468  -0.004341  -0.015964   0.067072
   29  H  4  Y   -0.007326  -0.011326   0.020681  -0.003315   0.010284
   30  H  4  Z   -0.005727  -0.014009  -0.001453   0.019950  -0.013399

                      6          7

    1  N  1  S   -0.028266  -0.012462
    2  N  1  S   -0.064486  -0.033400
    3  N  1  S    0.068689   0.060830
    4  N  1  X   -0.925596   0.023562
    5  N  1  Y   -0.028821   0.885015
    6  N  1  Z    0.034842   0.057288
    7  N  1  X   -0.076244   0.009723
    8  N  1  Y   -0.012385   0.032730
    9  N  1  Z   -0.005991  -0.020990
   10  N  1 XX   -0.017472   0.027050
   11  N  1 YY    0.022862  -0.023585
   12  N  1 ZZ   -0.005390  -0.003465
   13  N  1 XY    0.030805   0.025918
   14  N  1 XZ    0.051299  -0.008995
   15  N  1 YZ    0.011669  -0.029865
   16  H  2  S   -0.354078  -0.608575
   17  H  2  S   -0.072249  -0.141770
   18  H  2  X    0.018160  -0.039640
   19  H  2  Y    0.041112   0.027058
   20  H  2  Z    0.001452   0.012432
   21  H  3  S   -0.373797   0.584094
   22  H  3  S   -0.075884   0.132190
   23  H  3  X   -0.010836   0.045327
   24  H  3  Y   -0.041730   0.026159
   25  H  3  Z   -0.016044  -0.006500
   26  H  4  S    0.706318  -0.027291
   27  H  4  S    0.139456  -0.003235
   28  H  4  X   -0.064655   0.011092
   29  H  4  Y   -0.013339  -0.015046
   30  H  4  Z    0.007326  -0.012780

Actually Used Diabatic Molecualr Orbitals:

                      1          2          3          4          5

    1  N  1  S    0.007351  -0.012930   0.015508  -0.012369   0.243624
    2  N  1  S    0.435529  -0.028363   0.037660  -0.185368   0.796142
    3  N  1  S    0.302227   0.018038  -0.037127  -0.281803   0.164383
    4  N  1  X    0.004039   0.503420  -0.010479  -0.018177  -0.005829
    5  N  1  Y   -0.001027   0.035217   0.467530   0.019055   0.023461
    6  N  1  Z    0.086888  -0.019991   0.019359   0.597887   0.671217
    7  N  1  X    0.010147   0.190495  -0.035240   0.025192  -0.025912
    8  N  1  Y   -0.017484  -0.014548   0.256649  -0.028539   0.030137
    9  N  1  Z    0.009573   0.031026  -0.039292   0.382772  -0.096605
   10  N  1 XX    0.001530   0.007748  -0.006874  -0.011840  -0.020618
   11  N  1 YY   -0.002370  -0.008188   0.007273  -0.011965   0.025591
   12  N  1 ZZ    0.000840   0.000440  -0.000398   0.023805  -0.004973
   13  N  1 XY    0.001604   0.006333  -0.018470   0.001863  -0.023913
   14  N  1 XZ   -0.000971   0.020524  -0.002373   0.000120   0.024166
   15  N  1 YZ   -0.000358   0.000196   0.024742   0.001566  -0.026281
   16  H  2  S    0.191224  -0.169622   0.357014   0.094908  -0.507055
   17  H  2  S    0.003725  -0.028259   0.078846   0.019674  -0.058540
   18  H  2  X    0.019660   0.009892   0.022858   0.010006  -0.033347
   19  H  2  Y   -0.027394   0.019002  -0.013749  -0.016502   0.060837
   20  H  2  Z   -0.013395   0.012379  -0.022263   0.017936  -0.008939
   21  H  3  S    0.190550  -0.187190  -0.337322   0.113329  -0.476950
[...]
      323   -0.020779    0.020779  +022-+0
      894    0.020731    0.020731  0+22002
       78   -0.020562    0.020562  20220+0
      332    0.020495   -0.020495  ++-2-0+
      107    0.020476   -0.020476  +22-+00
      809   -0.020095    0.020095  20+2+0-

 State #    3  Energy =     -55.835063967

      Det      Coef        Coefp    Occupancy (Ignoring core)
      ---      ----        ----    --------- --------- -----
       36   -0.910520   -0.910520  22+2000
       71   -0.304130    0.304130  2+22000
        1    0.213616   -0.213616  222+000
      463    0.054169   -0.054169  20+2020
      823    0.031979   -0.031979  20+2002
      285    0.029635   -0.029635  02+2200
      122    0.028691    0.028691  +2-200+
      123   -0.028275    0.028275  +-2200+
      262    0.028135    0.028135  2+02-0+
      472    0.027946    0.027946  2+020-+
      157   -0.027820    0.027820  220+-0+
      142    0.026617    0.026617  22+0200
       16    0.024817   -0.024817  222000+
       88   -0.022216    0.022216  202200+
      248    0.021965   -0.021965  2+02200
      356    0.021264    0.021264  22+0020
      111    0.021074   -0.021074  +22-0+0
      859    0.020808   -0.020808  02+2002
      297   -0.020455    0.020455  +202-0+
      288   -0.020396   -0.020396  +-+2-+0

 ---------------------------------------
    -DIABATIC STATES IN PROTOTYPES-     
 ---------------------------------------

     STATE:    1
 Group Ref#    Coefficients
     1    1    0.983280
     2    2   -0.000642
     3    3    0.002388

WEIGHT OF LISTED PROTOTYPES:   96.68%

     STATE:    2
 Group Ref#    Coefficients
     1    1   -0.000642
     2    2    0.980397
     3    3   -0.002070

WEIGHT OF LISTED PROTOTYPES:   96.12%

     STATE:    3
 Group Ref#    Coefficients
     1    1    0.002388
     2    2   -0.002070
     3    3    0.982573

WEIGHT OF LISTED PROTOTYPES:   96.55%

 --------------------------------------------------
 IN DIRECT MAX. DIABATIZATION FOR GMC-QDPT

 DIRECT MAXIMIZATION (DM) WITHOUT TRUNCATING ADIABATS
 EXPANSIONS INTO THE REFERENCE CONFIGURATION SPACE
 --------------------------------------------------

 -------------------------------------------
 - DM DIABT PT HAMILTONIAN MATRIX ELEMENTS -
 -------------------------------------------
                                            
 --- DIABATIC ENERGIES (DIAGONAL ELEMENT) ---       HARTREE            EV
 STATE #  1'S GMC-PT-LEVEL DIABATIC ENERGY=     -55.980581252       0.000000000
 STATE #  2'S GMC-PT-LEVEL DIABATIC ENERGY=     -55.749151869       6.297514263
 STATE #  3'S GMC-PT-LEVEL DIABATIC ENERGY=     -55.835063845       3.959730329

 --- DIABATIC COUPLINGS (OFF DIAGONAL ELEMENTS)---  HATREE            EV
 STATE #  1 &  2'S GMC-PT-LEVEL COUPLING  =       0.023104467       0.628704575
 STATE #  1 &  3'S GMC-PT-LEVEL COUPLING  =      -0.023613242      -0.642549056
 STATE #  2 &  3'S GMC-PT-LEVEL COUPLING  =       0.034892320       0.949468390

 ---------------------------------------
     - ROTATION TO DIABATIC STATES -    
 ---------------------------------------
 ROWS=ADIABATIC, COLUMNS=DIABATIC STATES

             1           2           3

    1   -0.9764961   0.1206722  -0.1785878
    2   -0.2074327  -0.3011124   0.9307540
    3    0.0585411   0.9459226   0.3190664

 ---------------------------------------
          - DIABATIC STATES -           
 ---------------------------------------

 State #    1  Energy =     -55.980581252

      Det      Coef        Coefp    Occupancy (Ignoring core)
      ---      ----        ----    --------- --------- -----
        1    0.965217   -0.965217  222+000
       17    0.097363    0.097363  22-+00+
      717   -0.076133   -0.076133  220+002
      393   -0.067038   -0.067038  202+020
      701   -0.066941   -0.066941  22++00-
        3   -0.056977   -0.056977  22-++00
      141    0.054785    0.054785  22++-00
        4    0.049442   -0.049442  2-2++00
      176   -0.048043    0.048043  2+2+-00
      402    0.039744   -0.039744  2+-+0-+
       16   -0.038639    0.038639  222000+
      708    0.037759   -0.037759  2-++0+-
      215   -0.035424   -0.035424  022+200
        6   -0.034657    0.034657  22200+0
        7    0.033815    0.033815  22-+0+0
      227   -0.033676   -0.033676  +2-+-0+
      705   -0.033432   -0.033432  -2+++0-
      390    0.032812   -0.032812  -+2++-0
      218    0.032721   -0.032721  +-2+-+0
      351   -0.031435   -0.031435  22++0-0
       51   -0.030422    0.030422  22+-00+
      212    0.028683    0.028683  +220200
      122    0.027772    0.027772  +2-200+
        2    0.027023   -0.027023  2220+00
       76    0.026436    0.026436  2+2-0+0
      773    0.024225   -0.024225  +2-++0-
      179   -0.023833   -0.023833  202+200
      113   -0.023723    0.023723  +-220+0
      702    0.023203    0.023203  22+0+0-
      159    0.023098   -0.023098  -2++-0+
      736    0.022889   -0.022889  2+2+00-
        8   -0.022597    0.022597  2-2+0+0
       18   -0.022584    0.022584  2-2+00+
      387   -0.022105    0.022105  2+20+-0
      424   -0.021694   -0.021694  +-2++-0
      184   -0.021045   -0.021045  -+2+-+0
     1051   -0.020467   -0.020467  2+++0--
      143   -0.020291   -0.020291  220+200

 State #    2  Energy =     -55.749151869

      Det      Coef        Coefp    Occupancy (Ignoring core)
      ---      ----        ----    --------- --------- -----
       71   -0.967434    0.967434  2+22000
      822    0.078181   -0.078181  2+02002
      806   -0.065121   -0.065121  2++200-
      246    0.059545    0.059545  2++2-00
       73   -0.057557    0.057557  2+-2+00
       87    0.053978   -0.053978  2+-200+
       36    0.046665    0.046665  22+2000
      736    0.046258   -0.046258  2+2+00-
       86   -0.043094   -0.043094  2+2-00+
      813    0.043085   -0.043085  20+20+-
       78   -0.040730    0.040730  20220+0
      111    0.040344   -0.040344  +22-0+0
       77    0.036626   -0.036626  2+-20+0
      456   -0.036293   -0.036293  2++20-0
      320    0.035622    0.035622  0+22200
      122    0.035286    0.035286  +2-200+
      332   -0.035215    0.035215  ++-2-0+
      810   -0.034984   -0.034984  -++2+0-
      106   -0.034621   -0.034621  +222000
      323   -0.031162    0.031162  +022-+0
      386    0.030116   -0.030116  2+2+0-0
       38   -0.030079    0.030079  2202+00
      317    0.029464   -0.029464  ++2-200
      180   -0.029379    0.029379  -+2+200
      177    0.027895   -0.027895  2+20200
       99   -0.027267    0.027267  20-20++
        6    0.026890   -0.026890  22200+0
      807   -0.026201    0.026201  2++-+0-
      192   -0.025983    0.025983  2+-+-0+
       51    0.025145   -0.025145  22+-00+
      264    0.024300   -0.024300  -++2-0+
      878    0.024226    0.024226  ++-2+0-
      391    0.023842   -0.023842  2+20020
      183   -0.023509    0.023509  202+-+0
      248    0.023215   -0.023215  2+02200
       74   -0.022212    0.022212  2022+00
      421   -0.021327   -0.021327  +22+0-0
      113    0.021017   -0.021017  +-220+0
       90    0.020764    0.020764  2+--+0+

 State #    3  Energy =     -55.835063845

      Det      Coef        Coefp    Occupancy (Ignoring core)
      ---      ----        ----    --------- --------- -----
       36   -0.967381   -0.967381  22+2000
       39   -0.079393   -0.079393  2-+2+00
      463    0.065482   -0.065482  20+2020
       41   -0.061636    0.061636  22+-0+0
       38    0.059812   -0.059812  2202+00
      246    0.058267    0.058267  2++2-00
      351    0.052483    0.052483  22++0-0
       71   -0.046584    0.046584  2+22000
       51   -0.045887    0.045887  22+-00+
      701    0.045253    0.045253  22++00-
      106    0.043273    0.043273  +222000
      472   -0.042799   -0.042799  2+020-+
       52   -0.039018    0.039018  220200+
      285    0.034783   -0.034783  02+2200
      297    0.034206   -0.034206  +202-0+
      121   -0.033612    0.033612  +22-00+
      460   -0.033261   -0.033261  -++2+-0
      288   -0.032795   -0.032795  +-+2-+0
       53    0.032014    0.032014  2-+200+
      123    0.030535   -0.030535  +-2200+
      806   -0.030324   -0.030324  2++200-
      145   -0.029556   -0.029556  -2++200
      282    0.029208    0.029208  +2+-200
      142    0.027884    0.027884  22+0200
      157    0.027668   -0.027668  220+-0+
       64    0.027084   -0.027084  2-020++
       42   -0.026932    0.026932  22020+0
       16   -0.024548    0.024548  222000+
      249    0.024065   -0.024065  20+2200
      716    0.023226    0.023226  22+0002
      457   -0.023155    0.023155  2++-+-0
       55   -0.022849   -0.022849  220-+0+
      148   -0.022728   -0.022728  2-++-+0
      494    0.021858   -0.021858  +-+2+-0
      843   -0.021158   -0.021158  +202+0-
       73    0.021126   -0.021126  2+-2+00
      859    0.020557   -0.020557  02+2002
      254    0.020273   -0.020273  -++2-+0

 ---------------------------------------
      - DIABATIC STATES IN CMO -        
 ---------------------------------------

 State #    1  Energy =     -55.980581252

      Det      Coef        Coefp    Occupancy (Ignoring core)
      ---      ----        ----    --------- --------- -----
        1    0.946084   -0.946084  222+000
       36    0.241971    0.241971  22+2000
      717   -0.068145   -0.068145  220+002
       71   -0.060778    0.060778  2+22000
      393   -0.059732   -0.059732  202+020
        8   -0.040584    0.040584  2-2+0+0
      143   -0.036468   -0.036468  220+200
      708   -0.036397    0.036397  2-++0+-
       17   -0.033681   -0.033681  22-+00+
      753   -0.031435   -0.031435  202+002
      215   -0.030850   -0.030850  022+200
      402   -0.030462    0.030462  2+-+0-+
      106   -0.027994   -0.027994  +222000
      703    0.027818    0.027818  220++0-
        3    0.027046    0.027046  22-++00
      705    0.026006    0.026006  -2+++0-
      122   -0.024551   -0.024551  +2-200+
       51    0.023971   -0.023971  22+-00+
       76    0.023632    0.023632  2+2-0+0
       16    0.023276   -0.023276  222000+
      157   -0.023150    0.023150  220+-0+
      113   -0.022063    0.022063  +-220+0
      368    0.021896    0.021896  2-++0-+
      213    0.021670   -0.021670  +2-+200
      218    0.021629   -0.021629  +-2+-+0
      390    0.021537   -0.021537  -+2++-0
      719    0.020769    0.020769  -2++002
      227    0.020663    0.020663  +2-+-0+
      702   -0.020438   -0.020438  22+0+0-

 State #    2  Energy =     -55.749151869

      Det      Coef        Coefp    Occupancy (Ignoring core)
      ---      ----        ----    --------- --------- -----
       71   -0.930349    0.930349  2+22000
       36    0.281563    0.281563  22+2000
        1   -0.132017    0.132017  222+000
      822    0.065456   -0.065456  2+02002
      111    0.036581   -0.036581  +22-0+0
      248    0.036187   -0.036187  2+02200
      123   -0.030452    0.030452  +-2200+
      122   -0.030226   -0.030226  +2-200+
      320    0.029884    0.029884  0+22200
      813   -0.028566    0.028566  20+20+-
      463   -0.024655    0.024655  20+2020
      808   -0.024022    0.024022  2+02+0-
       18    0.024008   -0.024008  2-2+00+
      751    0.023784   -0.023784  2+20002
      391    0.023754   -0.023754  2+20020
      177    0.023103   -0.023103  2+20200
      262    0.022739    0.022739  2+02-0+
      810    0.022217    0.022217  -++2+0-
       38   -0.021541    0.021541  2202+00
      192    0.021531   -0.021531  2+-+-0+
      421   -0.021462   -0.021462  +22+0-0
      472   -0.021295   -0.021295  2+020-+
      318    0.021090    0.021090  ++-2200
       41   -0.021016    0.021016  22+-0+0
       86   -0.020942   -0.020942  2+2-00+
      323   -0.020779    0.020779  +022-+0
      894    0.020731    0.020731  0+22002
       78   -0.020562    0.020562  20220+0
      332    0.020495   -0.020495  ++-2-0+
      107    0.020476   -0.020476  +22-+00
      809   -0.020095    0.020095  20+2+0-

 State #    3  Energy =     -55.835063845

      Det      Coef        Coefp    Occupancy (Ignoring core)
      ---      ----        ----    --------- --------- -----
       36   -0.910519   -0.910519  22+2000
       71   -0.304132    0.304132  2+22000
        1    0.213616   -0.213616  222+000
      463    0.054169   -0.054169  20+2020
      823    0.031979   -0.031979  20+2002
      285    0.029635   -0.029635  02+2200
      122    0.028690    0.028690  +2-200+
      123   -0.028275    0.028275  +-2200+
      262    0.028135    0.028135  2+02-0+
      472    0.027946    0.027946  2+020-+
      157   -0.027820    0.027820  220+-0+
      142    0.026617    0.026617  22+0200
       16    0.024817   -0.024817  222000+
       88   -0.022216    0.022216  202200+
      248    0.021965   -0.021965  2+02200
      356    0.021264    0.021264  22+0020
      111    0.021074   -0.021074  +22-0+0
      859    0.020808   -0.020808  02+2002
      297   -0.020455    0.020455  +202-0+
      288   -0.020396   -0.020396  +-+2-+0

 ---------------------------------------
    -DIABATIC STATES IN PROTOTYPES-     
 ---------------------------------------

     STATE:    1
 Group Ref#    Coefficients
     1    1    0.983280
     2    2   -0.000641
     3    3    0.002387

WEIGHT OF LISTED PROTOTYPES:   96.68%

     STATE:    2
 Group Ref#    Coefficients
     1    1   -0.000643
     2    2    0.980397
     3    3   -0.002072

WEIGHT OF LISTED PROTOTYPES:   96.12%

     STATE:    3
 Group Ref#    Coefficients
     1    1    0.002389
     2    2   -0.002067
     3    3    0.982573

WEIGHT OF LISTED PROTOTYPES:   96.55%

     DIRECT MAX. DIABATIZATION FINISHED    
 CPU     0: STEP CPU TIME=     0.24 TOTAL CPU TIME=         12.4 (      0.2 MIN)
 TOTAL WALL CLOCK TIME=         12.4 SECONDS, CPU UTILIZATION IS    99.92%

DIABATS FOR SPIN-ORBIT CALCULATION ARE READY

TRANSITION DIPOLES BETWEEN ADIABATS (in A.U.):

STATE PAIR      X         Y         Z
    1    1 -0.158823  0.148316  0.741871
    2    1 -0.017251  0.021692  0.109730
    2    2 -0.017356  0.140016  0.276201
    3    1 -0.081791 -0.034849 -0.030965
    3    2  0.183645  0.173426  0.001470
    3    3 -0.379004  0.275937  0.265373


TRANSITION DIPOLES BETWEEN DIABATS (in A.U.):

STATE PAIR      X         Y         Z
    1    1 -0.155588  0.156956  0.768159
    2    1  0.027704  0.007242  0.002115
    2    2 -0.465041  0.153430  0.257412
    3    1  0.007805 -0.005732 -0.004706
    3    2  0.045744  0.185018  0.010113
    3    3  0.065446  0.253882  0.257874

TRANSITION DIPOLES BETWEEN DIRECT MAX. DIABATS (in A.U.):

STATE PAIR      X         Y         Z
    1    1 -0.155588  0.156956  0.768159
    2    1  0.027704  0.007242  0.002115
    2    2 -0.465041  0.153429  0.257412
    3    1  0.007805 -0.005732 -0.004706
    3    2  0.045743  0.185018  0.010113
    3    3  0.065446  0.253883  0.257874
 No $TRANST Group Found.
 Quit without doing spin-orbit coupling
 ..... DONE WITH MP2 ENERGY .....
 CPU     0: STEP CPU TIME=     0.01 TOTAL CPU TIME=         12.4 (      0.2 MIN)
 TOTAL WALL CLOCK TIME=         12.4 SECONDS, CPU UTILIZATION IS   100.00%
            100000000  WORDS OF DYNAMIC MEMORY USED
 EXECUTION OF GAMESS TERMINATED NORMALLY Wed Nov 16 19:44:36 2022
 DDI: 715512 bytes (0.7 MB / 0 MWords) used by master data server.

 ----------------------------------------
 CPU timing information for all processes
 ========================================
 0: 12.121 + 0.291 = 12.413
 ----------------------------------------
Note: The following floating-point exceptions are signalling: IEEE_DENORMAL
 ddikick.x: exited gracefully.
unset echo
----- accounting info -----
Files used on the master node io002 were:
-rw-r--r-- 1 bsonghao nooijen   20711 Nov 16 19:44 /scratch/bsonghao/nh3_diabatization_2d_at_mode_7_8_dist0.3_-0.3.F05
-rw-r--r-- 1 bsonghao nooijen  363520 Nov 16 19:44 /scratch/bsonghao/nh3_diabatization_2d_at_mode_7_8_dist0.3_-0.3.F09
-rw-r--r-- 1 bsonghao nooijen 1995920 Nov 16 19:44 /scratch/bsonghao/nh3_diabatization_2d_at_mode_7_8_dist0.3_-0.3.F10
-rw-r--r-- 1 bsonghao nooijen  131264 Nov 16 19:44 /scratch/bsonghao/nh3_diabatization_2d_at_mode_7_8_dist0.3_-0.3.F13
-rw-r--r-- 1 bsonghao nooijen  180312 Nov 16 19:44 /scratch/bsonghao/nh3_diabatization_2d_at_mode_7_8_dist0.3_-0.3.F15
-rw-r--r-- 1 bsonghao nooijen       0 Nov 16 19:44 /scratch/bsonghao/nh3_diabatization_2d_at_mode_7_8_dist0.3_-0.3.F16
-rw-r--r-- 1 bsonghao nooijen    9808 Nov 16 19:44 /scratch/bsonghao/nh3_diabatization_2d_at_mode_7_8_dist0.3_-0.3.F70
-rw-r--r-- 1 bsonghao nooijen    9808 Nov 16 19:44 /scratch/bsonghao/nh3_diabatization_2d_at_mode_7_8_dist0.3_-0.3.F71
-rw-r--r-- 1 bsonghao nooijen   19608 Nov 16 19:44 /scratch/bsonghao/nh3_diabatization_2d_at_mode_7_8_dist0.3_-0.3.F72
-rw-r--r-- 1 bsonghao nooijen   19608 Nov 16 19:44 /scratch/bsonghao/nh3_diabatization_2d_at_mode_7_8_dist0.3_-0.3.F73
-rw-r--r-- 1 bsonghao nooijen 1920824 Nov 16 19:44 /scratch/bsonghao/nh3_diabatization_2d_at_mode_7_8_dist0.3_-0.3.F74
-rw-r--r-- 1 bsonghao nooijen       0 Nov 16 19:44 /scratch/bsonghao/nh3_diabatization_2d_at_mode_7_8_dist0.3_-0.3.F75
-rw-r--r-- 1 bsonghao nooijen   58848 Nov 16 19:44 /scratch/bsonghao/nh3_diabatization_2d_at_mode_7_8_dist0.3_-0.3.F76
-rw-r--r-- 1 bsonghao nooijen       0 Nov 16 19:44 /scratch/bsonghao/nh3_diabatization_2d_at_mode_7_8_dist0.3_-0.3.F77
-rw-r--r-- 1 bsonghao nooijen    1864 Nov 16 19:44 /scratch/bsonghao/nh3_diabatization_2d_at_mode_7_8_dist0.3_-0.3.F78
-rw-r--r-- 1 bsonghao nooijen   39208 Nov 16 19:44 /scratch/bsonghao/nh3_diabatization_2d_at_mode_7_8_dist0.3_-0.3.F79
-rw-r--r-- 1 bsonghao nooijen     104 Nov 16 19:44 /scratch/bsonghao/nh3_diabatization_2d_at_mode_7_8_dist0.3_-0.3.F80
-rw-r--r-- 1 bsonghao nooijen   13472 Nov 16 19:44 /scratch/bsonghao/nh3_diabatization_2d_at_mode_7_8_dist0.3_-0.3.F81
-rw-r--r-- 1 bsonghao nooijen      16 Nov 16 19:44 /scratch/bsonghao/nh3_diabatization_2d_at_mode_7_8_dist0.3_-0.3.F82
-rw-r--r-- 1 bsonghao nooijen   19216 Nov 16 19:44 /scratch/bsonghao/nh3_diabatization_2d_at_mode_7_8_dist0.3_-0.3.F83
-rw-r--r-- 1 bsonghao nooijen   29712 Nov 16 19:44 /scratch/bsonghao/nh3_diabatization_2d_at_mode_7_8_dist0.3_-0.3.F84
-rw-r--r-- 1 bsonghao nooijen  401576 Nov 16 19:44 /scratch/bsonghao/nh3_diabatization_2d_at_mode_7_8_dist0.3_-0.3.F85
-rw-r--r-- 1 bsonghao nooijen  903672 Nov 16 19:44 /scratch/bsonghao/nh3_diabatization_2d_at_mode_7_8_dist0.3_-0.3.F86
-rw-r--r-- 1 bsonghao nooijen     656 Nov 16 19:44 /scratch/bsonghao/nh3_diabatization_2d_at_mode_7_8_dist0.3_-0.3.F87
-rw-r--r-- 1 bsonghao nooijen   32240 Nov 16 19:44 /scratch/bsonghao/nh3_diabatization_2d_at_mode_7_8_dist0.3_-0.3.F88
-rw-r--r-- 1 bsonghao nooijen     240 Nov 16 19:44 /scratch/bsonghao/nh3_diabatization_2d_at_mode_7_8_dist0.3_-0.3.F89
-rw-r--r-- 1 bsonghao nooijen       0 Nov 16 19:44 /scratch/bsonghao/nh3_diabatization_2d_at_mode_7_8_dist0.3_-0.3.F90
-rw-r--r-- 1 bsonghao nooijen   13760 Nov 16 19:44 /scratch/bsonghao/nh3_diabatization_2d_at_mode_7_8_dist0.3_-0.3.F91
-rw-r--r-- 1 bsonghao nooijen   22776 Nov 16 19:44 /scratch/bsonghao/nh3_diabatization_2d_at_mode_7_8_dist0.3_-0.3.F92
-rw-r--r-- 1 bsonghao nooijen   23168 Nov 16 19:44 /scratch/bsonghao/nh3_diabatization_2d_at_mode_7_8_dist0.3_-0.3.F93
-rw-r--r-- 1 bsonghao nooijen   22776 Nov 16 19:44 /scratch/bsonghao/nh3_diabatization_2d_at_mode_7_8_dist0.3_-0.3.F94
-rw-r--r-- 1 bsonghao nooijen   13760 Nov 16 19:44 /scratch/bsonghao/nh3_diabatization_2d_at_mode_7_8_dist0.3_-0.3.F95
-rw-r--r-- 1 bsonghao nooijen   29440 Nov 16 19:44 /scratch/bsonghao/nh3_diabatization_2d_at_mode_7_8_dist0.3_-0.3.F96
-rw-r--r-- 1 bsonghao nooijen    1184 Nov 16 19:44 /scratch/bsonghao/nh3_diabatization_2d_at_mode_7_8_dist0.3_-0.3.F97
-rw-r--r-- 1 bsonghao nooijen    9808 Nov 16 19:44 /scratch/bsonghao/nh3_diabatization_2d_at_mode_7_8_dist0.3_-0.3.F98
-rw-r--r-- 1 bsonghao nooijen   30264 Nov 16 19:44 /scratch/bsonghao/nh3_diabatization_2d_at_mode_7_8_dist0.3_-0.3.F99
ls: No match.
ls: No match.
ls: No match.
Wed 16 Nov 2022 07:44:39 PM EST
0.288u 0.042s 0:15.79 2.0%	0+0k 48+224io 0pf+0w
