----- GAMESS execution script 'rungms' -----
This job is running on host io002
under operating system Linux at Wed 16 Nov 2022 06:58:51 PM EST
Available scratch disk space (Kbyte units) at beginning of the job is
Filesystem       1K-blocks       Used   Available Use% Mounted on
/dev/sdc1      15378471580 3278917120 11318349060  23% /scratch
GAMESS temporary binary files will be written to /scratch/bsonghao
GAMESS supplementary output files will be written to /home/bsonghao/.gamess_ascii_files/267638
Copying input file nh3_diabatization_2d_at_mode_7_8_dist-0.3_-0.4.inp to your run's scratch directory...
cp nh3_diabatization_2d_at_mode_7_8_dist-0.3_-0.4.inp /scratch/bsonghao/nh3_diabatization_2d_at_mode_7_8_dist-0.3_-0.4.F05
unset echo
/home/bjb2chen/gamess/ddikick.x /home/bjb2chen/gamess/gamess.00.x nh3_diabatization_2d_at_mode_7_8_dist-0.3_-0.4 -ddi 1 1 io002 -scr /scratch/bsonghao

 Distributed Data Interface kickoff program.
 Initiating 1 compute processes on 1 nodes to run the following command:
 /home/bjb2chen/gamess/gamess.00.x nh3_diabatization_2d_at_mode_7_8_dist-0.3_-0.4 

          ******************************************************
          *         GAMESS VERSION = 02 AUG 2018 (R2)         *
          *             FROM IOWA STATE UNIVERSITY             *
          * M.W.SCHMIDT, K.K.BALDRIDGE, J.A.BOATZ, S.T.ELBERT, *
          *   M.S.GORDON, J.H.JENSEN, S.KOSEKI, N.MATSUNAGA,   *
          *          K.A.NGUYEN, S.J.SU, T.L.WINDUS,           *
          *       TOGETHER WITH M.DUPUIS, J.A.MONTGOMERY       *
          *         J.COMPUT.CHEM.  14, 1347-1363(1993)        *
          **************** 64 BIT LINUX VERSION ****************

  SINCE 1993, STUDENTS AND POSTDOCS WORKING AT IOWA STATE UNIVERSITY
  AND ALSO IN THEIR VARIOUS JOBS AFTER LEAVING ISU HAVE MADE IMPORTANT
  CONTRIBUTIONS TO THE CODE:
     IVANA ADAMOVIC, CHRISTINE AIKENS, YURI ALEXEEV, POOJA ARORA,
     ANDREY ASADCHEV, ROB BELL, PRADIPTA BANDYOPADHYAY, JONATHAN BENTZ,
     BRETT BODE, KURT BRORSEN, CALEB CARLIN, GALINA CHABAN, WEI CHEN,
     CHEOL HO CHOI, PAUL DAY, ALBERT DEFUSCO, NUWAN DESILVA, TIM DUDLEY,
     DMITRI FEDOROV, ALEX FINDLATER, GRAHAM FLETCHER, MARK FREITAG,
     KURT GLAESEMANN, ANASTASIA GUININA,
     DAN KEMP, GRANT MERRILL, NORIYUKI MINEZAWA, JONATHAN MULLIN,
     TAKESHI NAGATA, SEAN NEDD, HEATHER NETZLOFF, BOSILJKA NJEGIC, RYAN OLSON,
     MIKE PAK, BUU PHAM,
     SPENCER PRUITT, LUKE ROSKOP, JIM SHOEMAKER, LYUDMILA SLIPCHENKO,
     TONY SMITH, SAROM SOK LEANG, JIE SONG, TETSUYA TAKETSUGU, SIMON WEBB,
     PENG XU, SOOHAENG YOO, FEDERICO ZAHARIEV

  ADDITIONAL CODE HAS BEEN PROVIDED BY COLLABORATORS IN OTHER GROUPS:
     IOWA STATE UNIVERSITY:
          JOE IVANIC, AARON WEST, LAIMUTIS BYTAUTAS, KLAUS RUEDENBERG
     UNIVERSITY OF TOKYO: KIMIHIKO HIRAO, TAKAHITO NAKAJIMA,
          TAKAO TSUNEDA, MUNEAKI KAMIYA, SUSUMU YANAGISAWA,
          KIYOSHI YAGI, MAHITO CHIBA, SEIKEN TOKURA, NAOAKI KAWAKAMI
     UNIVERSITY OF AARHUS: FRANK JENSEN
     UNIVERSITY OF IOWA: VISVALDAS KAIRYS, HUI LI
     NATIONAL INST. OF STANDARDS AND TECHNOLOGY: WALT STEVENS, DAVID GARMER
     UNIVERSITY OF PISA: BENEDETTA MENNUCCI, JACOPO TOMASI
     UNIVERSITY OF MEMPHIS: HENRY KURTZ, PRAKASHAN KORAMBATH
     UNIVERSITY OF ALBERTA: TOBY ZENG, MARIUSZ KLOBUKOWSKI
     UNIVERSITY OF NEW ENGLAND: MARK SPACKMAN
     MIE UNIVERSITY: HIROAKI UMEDA
     NAT. INST. OF ADVANCED INDUSTRIAL SCIENCE AND TECHNOLOGY: KAZUO KITAURA
     MICHIGAN STATE UNIVERSITY:
          KAROL KOWALSKI, MARTA WLOCH, JEFFREY GOUR, JESSE LUTZ,
          WEI LI, JUN SHEN, J. EMILIANO DEUSTUA, PIOTR PIECUCH
     UNIVERSITY OF MINNESOTA:
          YINAN SHU
     UNIVERSITY OF SILESIA: MONIKA MUSIAL, STANISLAW KUCHARSKI
     FACULTES UNIVERSITAIRES NOTRE-DAME DE LA PAIX:
          OLIVIER QUINET, BENOIT CHAMPAGNE
     UNIVERSITY OF CALIFORNIA - SANTA BARBARA: BERNARD KIRTMAN
     INSTITUTE FOR MOLECULAR SCIENCE:
          KAZUYA ISHIMURA, MICHIO KATOUDA, AND SHIGERU NAGASE
     UNIVERSITY OF NOTRE DAME: ANNA POMOGAEVA, DAN CHIPMAN
     KYUSHU UNIVERSITY:
          HARUYUKI NAKANO,
          FENG LONG GU, JACEK KORCHOWIEC, MARCIN MAKOWSKI, AND YURIKO AOKI,
          HIROTOSHI MORI AND EISAKU MIYOSHI
     PENNSYLVANIA STATE UNIVERSITY:
          TZVETELIN IORDANOV, CHET SWALINA, JONATHAN SKONE,
          SHARON HAMMES-SCHIFFER
     WASEDA UNIVERSITY:
          MASATO KOBAYASHI, TOMOKO AKAMA, TSUGUKI TOUMA,
          TAKESHI YOSHIKAWA, YASUHIRO IKABATA, JUNJI SEINO,
          YUYA NAKAJIMA, HIROMI NAKAI
     NANJING UNIVERSITY: SHUHUA LI
     UNIVERSITY OF NEBRASKA:
          PEIFENG SU, DEJUN SI, NANDUN THELLAMUREGE, YALI WANG, HUI LI
     UNIVERSITY OF ZURICH: ROBERTO PEVERATI, KIM BALDRIDGE
     N. COPERNICUS UNIVERSITY AND JACKSON STATE UNIVERSITY:
          MARIA BARYSZ
     UNIVERSITY OF COPENHAGEN: Jimmy Kromann, CASPER STEINMANN
     TOKYO INSTITUTE OF TECHNOLOGY: HIROYA NAKATA
     NAGOYA UNIVERSITY: YOSHIO NISHIMOTO, STEPHAN IRLE
     MOSCOW STATE UNIVERSITY: VLADIMIR MIRONOV

 EXECUTION OF GAMESS BEGUN Wed Nov 16 18:58:52 2022

            ECHO OF THE FIRST FEW INPUT CARDS -
 INPUT CARD> $system kdiag=3 mwords=100 memddi=1000 parall=.t. $end                         
 INPUT CARD> $contrl runtyp=energy ispher=1 $end                                            
 INPUT CARD> $contrl icut=9 itol=20 inttyp=rysquad qmttol=1.0d-05 nosym=1 $end              
 INPUT CARD> $scf    npunch=2 conv=1.0d-06 dirscf=.t.      $end                             
 INPUT CARD> $contrl scftyp=mcscf  mult=2 maxit=200 icharg=1 mplevl=2 $end                  
 INPUT CARD> $guess  guess=moread norb=29 purify=.t. $end                                   
 INPUT CARD> $basis  gbasis=ccd $end                                                        
 INPUT CARD> $mcscf  cistep=gmcci fullnr=.t. finci=mos                                      
 INPUT CARD>         acurcy=1.d-6 maxit=100 $end                                            
 INPUT CARD> $trans  dirtrf=.t. $end                                                        
 INPUT CARD> $mrmp   mrpt=gmcpt rdvecs=.f. $end                                             
 INPUT CARD> $gmcpt  nmofzc=0 nmodoc=1 nmoact=7 nelact=7 stsym(1)=A                         
 INPUT CARD>         reftyp=ormas nspace=1 mstart(1)=2 mine(1)=7 maxe(1)=7                  
 INPUT CARD>         kstate(1)=1,1,1                                                        
 INPUT CARD>         wstate(1)=1,1,1                                                        
 INPUT CARD>         iwgt=0 thrwgt=-1.0 krot=.f. kszdoe=.f. knospn=.f.                      
 INPUT CARD>         thrde=-1.0 edshft=0.02 $end                                            
 INPUT CARD> $data                                                                          
 INPUT CARD> NH3+ 3 states calculation at NH3 structure.                                    
 INPUT CARD> c1                                                                             
 INPUT CARD>N 7.0 0.024915672 0.018686709000000003 -0.1693804682                            
 INPUT CARD>H 1.0 -0.783617801 0.6327535998 0.24067176210000002                             
 INPUT CARD>H 1.0 -0.554341842 -0.6734845138000001 0.37783619510000005                      
 INPUT CARD>H 1.0 0.991749708 -0.21892724000000002 0.1508694191                             
 INPUT CARD>$end                                                                            
 INPUT CARD>--- OPTIMIZED RHF      MO-S --- GENERATED AT Mon Nov 14 16:47:08 2022           
 INPUT CARD>E=      -56.3825050291, E(NUC)=   11.8429239490                                 
 INPUT CARD> $VEC                                                                           
 INPUT CARD> 1  1-1.00134066E+00-2.25158504E-03 3.44925845E-03 0.00000000E+00 0.00000000E+00
 INPUT CARD> 1  2-2.13170927E-03 0.00000000E+00 0.00000000E+00 6.57129898E-04-6.87950443E-05
 INPUT CARD> 1  3-6.87950443E-05 1.37590089E-04 0.00000000E+00 0.00000000E+00 0.00000000E+00
 INPUT CARD> 1  4 3.25502815E-04-4.84772356E-04 3.62525460E-04-6.27912517E-04-3.45956485E-04
 INPUT CARD> 1  5 3.25502815E-04-4.84772356E-04 3.62525460E-04 6.27912517E-04-3.45956485E-04
 INPUT CARD> 1  6 3.25502815E-04-4.84772356E-04-7.25050921E-04 0.00000000E+00-3.45956485E-04
 INPUT CARD> 2  1 1.31286642E-02-4.05911371E-01-2.82090992E-01 0.00000000E+00 0.00000000E+00
 INPUT CARD> 2  2-7.71489043E-02 0.00000000E+00 0.00000000E+00 9.73717494E-03 6.62450916E-04
 INPUT CARD> 2  3 6.62450916E-04-1.32490183E-03 0.00000000E+00 0.00000000E+00 0.00000000E+00
 INPUT CARD> 2  4-1.96090317E-01-1.96656153E-02-1.74855877E-02 3.02859263E-02 8.68214399E-03
 INPUT CARD> 2  5-1.96090317E-01-1.96656153E-02-1.74855877E-02-3.02859263E-02 8.68214399E-03
 INPUT CARD> 2  6-1.96090317E-01-1.96656153E-02 3.49711754E-02 0.00000000E+00 8.68214399E-03
 INPUT CARD> 3  1 0.00000000E+00 0.00000000E+00 0.00000000E+00 4.48608762E-01 0.00000000E+00
 INPUT CARD> 3  2 0.00000000E+00 2.18692520E-01 0.00000000E+00 0.00000000E+00 1.30198027E-02
 INPUT CARD> 3  3-1.30198027E-02 0.00000000E+00 0.00000000E+00 2.71832968E-02 0.00000000E+00
 INPUT CARD> 3  4-1.85332726E-01-7.03958951E-02 8.47929477E-03 1.95242443E-02 8.32835058E-03
 INPUT CARD> 3  5-1.85332726E-01-7.03958951E-02 8.47929477E-03-1.95242443E-02 8.32835058E-03
 INPUT CARD> 3  6 3.70665453E-01 1.40791790E-01-2.53376884E-02 0.00000000E+00-1.66567012E-02
 INPUT CARD> 4  1 0.00000000E+00 0.00000000E+00 0.00000000E+00 0.00000000E+00 4.48608762E-01
 INPUT CARD> 4  2 0.00000000E+00 0.00000000E+00 2.18692520E-01 0.00000000E+00 0.00000000E+00
 INPUT CARD> 4  3 0.00000000E+00 0.00000000E+00-1.50339731E-02 0.00000000E+00 2.71832968E-02
 INPUT CARD> 4  4 3.21005698E-01 1.21929267E-01 1.95242443E-02-1.40653607E-02-1.44251263E-02
  100000000 WORDS OF MEMORY AVAILABLE

     BASIS OPTIONS
     -------------
     GBASIS=CCD          IGAUSS=       0      POLAR=NONE    
     NDFUNC=       0     NFFUNC=       0     DIFFSP=       F
     NPFUNC=       0      DIFFS=       F     BASNAM=        


     RUN TITLE
     ---------
  NH3+ 3 states calculation at NH3 structure.                                    

 THE POINT GROUP OF THE MOLECULE IS C1      
 THE ORDER OF THE PRINCIPAL AXIS IS     0

 ATOM      ATOMIC                      COORDINATES (BOHR)
           CHARGE         X                   Y                   Z
 N           7.0     0.0470837929        0.0353127596       -0.3200826726
 H           1.0    -1.4808229230        1.1957309214        0.4548036834
 H           1.0    -1.0475541849       -1.2727011881        0.7140068770
 H           1.0     1.8741351965       -0.4137124948        0.2851018620

          INTERNUCLEAR DISTANCES (ANGS.)
          ------------------------------

                1 N          2 H          3 H          4 H     

   1 N       0.0000000    1.0949645 *  1.0555029 *  1.0458434 *
   2 H       1.0949645 *  0.0000000    1.3332815 *  1.9711303 *
   3 H       1.0555029 *  1.3332815 *  0.0000000    1.6274321 *
   4 H       1.0458434 *  1.9711303 *  1.6274321 *  0.0000000  

  * ... LESS THAN  3.000


     ATOMIC BASIS SET
     ----------------
 THE CONTRACTED PRIMITIVE FUNCTIONS HAVE BEEN UNNORMALIZED
 THE CONTRACTED BASIS FUNCTIONS ARE NOW NORMALIZED TO UNITY

  SHELL TYPE  PRIMITIVE        EXPONENT          CONTRACTION COEFFICIENT(S)

 N         

      1   S       1          9046.0000000    0.000699617413
      1   S       2          1357.0000000    0.005386054630
      1   S       3           309.3000000    0.027391021189
      1   S       4            87.7300000    0.103150591982
      1   S       5            28.5600000    0.278570663317
      1   S       6            10.2100000    0.448294849454
      1   S       7             3.8380000    0.278085928395
      1   S       8             0.7466000    0.015431561233

      2   S       9          9046.0000000   -0.000304990096
      2   S      10          1357.0000000   -0.002408026379
      2   S      11           309.3000000   -0.011944448725
      2   S      12            87.7300000   -0.048925992909
      2   S      13            28.5600000   -0.134472724725
      2   S      14            10.2100000   -0.315112577700
      2   S      15             3.8380000   -0.242857832550
      2   S      16             0.7466000    1.094382206854

      3   S      17             0.2248000    1.000000000000

      4   P      18            13.5500000    0.058905676772
      4   P      19             2.9170000    0.320461106714
      4   P      20             0.7973000    0.753042061792

      5   P      21             0.2185000    1.000000000000

      6   D      22             0.8170000    1.000000000000

 H         

      7   S      23            13.0100000    0.033498726390
      7   S      24             1.9620000    0.234800801174
      7   S      25             0.4446000    0.813682957883

      8   S      26             0.1220000    1.000000000000

      9   P      27             0.7270000    1.000000000000

 H         

     10   S      28            13.0100000    0.033498726390
     10   S      29             1.9620000    0.234800801174
     10   S      30             0.4446000    0.813682957883

     11   S      31             0.1220000    1.000000000000

     12   P      32             0.7270000    1.000000000000

 H         

     13   S      33            13.0100000    0.033498726390
     13   S      34             1.9620000    0.234800801174
     13   S      35             0.4446000    0.813682957883

     14   S      36             0.1220000    1.000000000000

     15   P      37             0.7270000    1.000000000000

 TOTAL NUMBER OF BASIS SET SHELLS             =   15
 NUMBER OF CARTESIAN GAUSSIAN BASIS FUNCTIONS =   30
 NOTE: THIS RUN WILL RESTRICT THE MO VARIATION SPACE TO SPHERICAL HARMONICS.
 THE NUMBER OF ORBITALS KEPT IN THE VARIATIONAL SPACE WILL BE PRINTED LATER.
 NUMBER OF ELECTRONS                          =    9
 CHARGE OF MOLECULE                           =    1
 SPIN MULTIPLICITY                            =    2
 NUMBER OF OCCUPIED ORBITALS (ALPHA)          =    5
 NUMBER OF OCCUPIED ORBITALS (BETA )          =    4
 TOTAL NUMBER OF ATOMS                        =    4
 THE NUCLEAR REPULSION ENERGY IS       11.4248260995

     $CONTRL OPTIONS
     ---------------
 SCFTYP=MCSCF        RUNTYP=ENERGY       EXETYP=RUN     
 MPLEVL=       2     CITYP =NONE         CCTYP =NONE         VBTYP =NONE    
 DFTTYP=NONE         TDDFT =NONE    
 MULT  =       2     ICHARG=       1     NZVAR =       0     COORD =UNIQUE  
 PP    =NONE         RELWFN=NONE         LOCAL =NONE         NUMGRD=       F
 ISPHER=       1     NOSYM =       1     MAXIT =     200     UNITS =ANGS    
 PLTORB=       F     MOLPLT=       F     AIMPAC=       F     FRIEND=        
 NPRINT=       7     IREST =       0     GEOM  =INPUT   
 NORMF =       0     NORMP =       0     ITOL  =      20     ICUT  =       9
 INTTYP=RYSQUAD      GRDTYP=BEST         QMTTOL= 1.0E-05

     $SYSTEM OPTIONS
     ---------------
  REPLICATED MEMORY=   100000000 WORDS (ON EVERY NODE).
 DISTRIBUTED MEMDDI=        1000 MILLION WORDS IN AGGREGATE,
 MEMDDI DISTRIBUTED OVER   1 PROCESSORS IS  1000000000 WORDS/PROCESSOR.
 TOTAL MEMORY REQUESTED ON EACH PROCESSOR=  1100000000 WORDS.
 TIMLIM=      525600.00 MINUTES, OR     365.0 DAYS.
 PARALL= T  BALTYP=  DLB     KDIAG=    3  COREFL= F
 MXSEQ2=     300 MXSEQ3=     150  mem10=         0

          ----------------
          PROPERTIES INPUT
          ----------------

     MOMENTS            FIELD           POTENTIAL          DENSITY
 IEMOM =       1   IEFLD =       0   IEPOT =       0   IEDEN =       0
 WHERE =COMASS     WHERE =NUCLEI     WHERE =NUCLEI     WHERE =NUCLEI  
 OUTPUT=BOTH       OUTPUT=BOTH       OUTPUT=BOTH       OUTPUT=BOTH    
 IEMINT=       0   IEFINT=       0                     IEDINT=       0
                                                       MORB  =       0

     -------------------------------
     INTEGRAL TRANSFORMATION OPTIONS
     -------------------------------
     NWORD  =            0
     CUTOFF = 1.0E-09     MPTRAN =       0
     DIRTRF =       T     AOINTS =DUP     

          ----------------------
          MCSCF INPUT PARAMETERS
          ----------------------
 CONVERGER SELECTION: FOCAS = F  SOSCF = F  FULLNR = T  QUD = F  JACOBI = F
 SECULAR EQUATION METHOD CISTEP = GMCCI   
 --- GENERAL INPUT OPTIONS:
 MAXIT =     100  MICIT =       1  ACURCY= 1.000E-06
 DAMP  =   0.000  CANONC=       T  ENGTOL= 1.000E-10
 EKT   =       F  NPUNCH=       2  NWORD =         0
 REGENERATE CI AFTER CONVERGENCE = NONE    
 DIABATIZATION AFTER CONVERGENCE =        F
 --- INPUT FOR FULLNR CONVERGER:
 METHOD=DM2       FORS  =       F  DROPC =       T
 LINSER=       F  FCORE =       F  NORB  =      30

          ----------------------
          INTEGRAL INPUT OPTIONS
          ----------------------
 NOPK  =       1 NORDER=       0 SCHWRZ=       T

 ------------------------------------------
 MULTIREFERENCE PERTURBATION THEORY CONTROL
 ------------------------------------------
 MRPT=GMCPT    READ CONVERGED MCSCF VECTORS= F


     ------------------------------------------
     THE POINT GROUP IS C1 , NAXIS= 1, ORDER= 1
     ------------------------------------------

 -- VARIATIONAL SPACE WILL BE RESTRICTED TO PURE SPHERICAL HARMONICS ONLY --
 AFTER EXCLUDING CONTAMINANT COMBINATIONS FROM THE CARTESIAN GAUSSIAN BASIS
 SET, THE NUMBER OF SPHERICAL HARMONICS KEPT IN THE VARIATION SPACE IS   29

     DIMENSIONS OF THE SYMMETRY SUBSPACES ARE
 A   =   29

 ..... DONE SETTING UP THE RUN .....
 CPU     0: STEP CPU TIME=     0.04 TOTAL CPU TIME=          0.0 (      0.0 MIN)
 TOTAL WALL CLOCK TIME=          0.0 SECONDS, CPU UTILIZATION IS   100.00%

          ********************
          1 ELECTRON INTEGRALS
          ********************
 TIME TO DO   DIPOLE INTEGRALS=      0.00
 ...... END OF ONE-ELECTRON INTEGRALS ......
 CPU     0: STEP CPU TIME=     0.00 TOTAL CPU TIME=          0.0 (      0.0 MIN)
 TOTAL WALL CLOCK TIME=          0.0 SECONDS, CPU UTILIZATION IS   100.00%

          -------------
          GUESS OPTIONS
          -------------
          GUESS =MOREAD            NORB  =      29          NORDER=       0
          MIX   =       F          PRTMO =       F          PUNMO =       F
          TOLZ  = 1.0E-08          TOLE  = 1.0E-05
          SYMDEN=       F          PURIFY=       T

 INITIAL GUESS ORBITALS GENERATED BY MOREAD   ROUTINE.

 STATISTICS FOR GENERATION OF SYMMETRY ORBITAL -Q- MATRIX
 NUMBER OF CARTESIAN ATOMIC ORBITALS=         30
 NUMBER OF SPHERICAL CONTAMINANTS DROPPED=     1
 NUMBER OF LINEARLY DEPENDENT MOS DROPPED=     0
 TOTAL NUMBER OF MOS IN VARIATION SPACE=      29
 ORBITAL PURIFICATION WILL OCCUR

 SYMMETRIES FOR INITIAL GUESS ORBITALS FOLLOW.   BOTH SET(S).
     5 ORBITALS ARE OCCUPIED (    1 CORE ORBITALS).
     1=A        2=A        3=A        4=A        5=A        6=A        7=A   
     8=A        9=A       10=A       11=A       12=A       13=A       14=A   
    15=A       16=A       17=A       18=A       19=A       20=A       21=A   
    22=A       23=A       24=A       25=A       26=A       27=A       28=A   
    29=A   
 ...... END OF INITIAL ORBITAL SELECTION ......
 CPU     0: STEP CPU TIME=     0.00 TOTAL CPU TIME=          0.0 (      0.0 MIN)
 TOTAL WALL CLOCK TIME=          0.1 SECONDS, CPU UTILIZATION IS    80.00%

                    ----------------------
                    AO INTEGRAL TECHNOLOGY
                    ----------------------
     S,P,L SHELL ROTATED AXIS INTEGRALS, REPROGRAMMED BY
        KAZUYA ISHIMURA (IMS) AND JOSE SIERRA (SYNSTAR).
     S,P,D,L SHELL ROTATED AXIS INTEGRALS PROGRAMMED BY
        KAZUYA ISHIMURA (INSTITUTE FOR MOLECULAR SCIENCE).
     S,P,D,F,G SHELL TO TOTAL QUARTET ANGULAR MOMENTUM SUM 5,
        ERIC PROGRAM BY GRAHAM FLETCHER (ELORET AND NASA ADVANCED
        SUPERCOMPUTING DIVISION, AMES RESEARCH CENTER).
     S,P,D,F,G,L SHELL GENERAL RYS QUADRATURE PROGRAMMED BY
        MICHEL DUPUIS (PACIFIC NORTHWEST NATIONAL LABORATORY).

          --------------------
          2 ELECTRON INTEGRALS
          --------------------

 DIRECT SCF METHOD SKIPS INTEGRAL STORAGE ON DISK.
 DIRECT TRANSFORMATION SKIPS AO INTEGRAL STORAGE ON DISK.
  ...... END OF TWO-ELECTRON INTEGRALS .....
 STEP CPU TIME =     0.02 TOTAL CPU TIME =          0.1 (      0.0 MIN)
 TOTAL WALL CLOCK TIME=          0.1 SECONDS, CPU UTILIZATION IS    85.71%
 DDI: Creating Array [0] - 900 x 36 = 32400 words.
 DDI: Creating Array [1] - 21 x 288 = 6048 words.
 DDI: Creating Array [2] - 36 x 36 = 1296 words.
 DDI: Creating Array [3] - 465 x 36 = 16740 words.

          -----------------
          MCSCF CALCULATION
          -----------------

 ----- NUCLEAR ENERGY ----- =        11.4248260995

     -------------------------------------------------
     GMC-PT/GMC-QDPT or general MCSCF input parameters
     -------------------------------------------------
 # of frozen core orbs. =         0 ->         0
 # of doubly occ. orbs. =         1
 # of active      orbs. =         7
 # of virtual     orbs. =        21
 # of active electrons  =         7
 # of states in CI      =         3
 Highest state in CI    =         3
 kstate =  1 1 1
 avecoe =  0.333 0.333 0.333
 State symmetry           = A           
 Assigned symmetry number = 1

 <<<Act. MO sym.: 1111111

 <<<Division of 1-ext.:  0
 <<<Division of 2-ext.:  0

 *** Reference space

 Reference type: ORMAS (= Occupation restricted multiple active space)
 # of orbitals          =  7
 # of minimum electrons =  7
 # of maximum electrons =  7
 State symmetry    =    1 (input)
 2*Sz              =    1 (input)
 Spin multiplicity =    2 (input)
 Dimension of reference space =      1225  (from      3432 walks)

 Dimension of reference space =      1225  (from      1225 walks)

 <<<Ionized spaces for Ref-CI:
      0:         1225 /   -1-0:         1960 /  0-1-0:         2891

 EVALUATING EXCHANGE INTEGRALS FOR DIRECT INTEGRAL TRANSFORMATION
 SCHWARZ INEQUALITY OVERHEAD:       465 INTEGRALS, T=        0.00

     --------------------------------------------
     PARTIAL TWO ELECTRON INTEGRAL TRANSFORMATION
     --------------------------------------------

 NUMBER OF CORE MOLECULAR ORBITALS     =    1
 NUMBER OF OCCUPIED MOLECULAR ORBITALS =    8
 TOTAL NUMBER OF MOLECULAR ORBITALS    =   29
 TOTAL NUMBER OF ATOMIC ORBITALS       =   30
 THRESHOLD FOR KEEPING TRANSFORMED 2E- INTEGRALS = 1.000E-09

 -------------------------------     ------------------------------
 DISTRIBUTED DATA TRANSFORMATION     PROGRAM WRITTEN BY G. FLETCHER
 -------------------------------     ------------------------------

 THE DISTRIBUTED MEMORY REQUIRED FOR THIS STEP IS MEMDDI=         1 MWORDS
 CREATING DISTRIBUTED STORAGE FOR [VIR OCC|VIR OCC] INTEGRALS
 CREATING DISTRIBUTED STORAGE FOR [VIR OCC|OCC OCC] INTEGRALS
 CREATING DISTRIBUTED STORAGE FOR [OCC OCC|OCC OCC] INTEGRALS
 CREATING DISTRIBUTED STORAGE FOR [VIR VIR|OCC OCC] INTEGRALS
 FOR    1 PROCESSORS, THE REPLICATED MEMORY NEEDED IS       73700 WORDS.
 SCHWARZ INEQUALITY OVERHEAD:       465 INTEGRALS, T=        0.00

      DIRECT 4-INDEX TRANSFORMATION 
      SCHWARZ INEQUALITY TEST SKIPPED          0 INTEGRAL BLOCKS
 ----- FROZEN CORE ENERGY =       -47.7132800052
 ... END OF INTEGRAL TRANSFORMATION ...
 CPU     0: STEP CPU TIME=     0.22 TOTAL CPU TIME=          0.3 (      0.0 MIN)
 TOTAL WALL CLOCK TIME=          0.3 SECONDS, CPU UTILIZATION IS    96.55%

     --------------------------------     -----------------------------
     MCHF NEWTON-RAPHSON OPTIMIZATION     CODE WRITTEN BY MICHEL DUPUIS
     --------------------------------     -----------------------------
     PARALLEL VERSION WRITTEN BY G. FLETCHER (ELORET)
     NASA ADVANCED SUPERCOMPUTING DIVISION, AMES RESEARCH CENTER

 NUMBER OF INDEPENDENT ORBITAL ROTATION PARAMETERS =   175
 ..... DONE SOLVING NEWTON-RAPHSON EQUATIONS .....
 CPU     0: STEP CPU TIME=     0.69 TOTAL CPU TIME=          1.0 (      0.0 MIN)
 TOTAL WALL CLOCK TIME=          1.0 SECONDS, CPU UTILIZATION IS    98.98%
 ..... DONE WITH NTN-RPH ORBITAL ROTATIONS ..... 
 CPU     0: STEP CPU TIME=     0.00 TOTAL CPU TIME=          1.0 (      0.0 MIN)
 TOTAL WALL CLOCK TIME=          1.0 SECONDS, CPU UTILIZATION IS    98.98%
 MAXIMUM MEMORY USED BY NTN-RPH CODE WAS     57645 WORDS.

 ITER     TOTAL ENERGY      DEL(E)  LAGRANGIAN ASYMMETRY   SQCDF  MICIT   DAMP
   1      -55.645473123 -0.645473123  0.125306   13    3 1.370E-01  1   0.0000
   2      -55.689533332 -0.044060209  0.021758   12    5 4.545E-01  1   0.0000
   3      -55.723547363 -0.034014031  0.012770   11    6 2.183E-01  1   0.0235
   4      -55.738094675 -0.014547311  0.004374   11    6 3.984E-02  1   0.0047
   5      -55.739906347 -0.001811673  0.000688   12    5 1.029E-03  1   0.0000
   6      -55.739955432 -0.000049085  0.000220   14    5 7.679E-05  1   0.0000
   7      -55.739960085 -0.000004653  0.000095   12    5 1.216E-05  1   0.0000
   8      -55.739960882 -0.000000797  0.000043   14    5 2.398E-06  1   0.0000
   9      -55.739961045 -0.000000163  0.000021   22    5 5.574E-07  1   0.0000
  10      -55.739961084 -0.000000039  0.000011   22    5 1.488E-07  1   0.0000
  11      -55.739961094 -0.000000010  0.000006   22    5 4.394E-08  1   0.0000
  12      -55.739961097 -0.000000003  0.000004   22    5 1.378E-08  1   0.0000
  13      -55.739961098 -0.000000001  0.000002   28    3 4.554E-09  1   0.0000
  14      -55.739961099 -0.000000000  0.000001   22    5 1.544E-09  1   0.0000
  15      -55.739961099 -0.000000000  0.000001   12    7 5.265E-10  1   0.0000

          --------------------
          LAGRANGIAN CONVERGED
          --------------------

 FINAL MCSCF ENERGY IS      -55.7399610987 AFTER  15 ITERATIONS

 -MCCI- BASED ON OPTIMIZED ORBITALS
 ----------------------------------

 PLEASE NOTE: IF THE ACTIVE ORBITALS ARE CANONICALIZED BELOW,
 THE FOLLOWING CI EXPANSION COEFFICIENTS AND THE DENSITY DO NOT
 CORRESPOND TO THE PRINTED ORBITALS.  THE PRINTED EXPANSIONS MATCH
 THE ORBITALS USED DURING THE LAST ITERATION.  IF YOU WISH TO SEE
 CI EXPANSIONS BASED ON THE CANONICAL (OR NATURAL) ORBITALS, YOU
 MUST RUN A CI CALCULATION WITH THAT ORBITAL CHOICE READ IN $VEC.

 Averaged energy =     -55.739961099

 State #    1  Energy =     -55.879501236  S =  0.500

      Det      Coef    Occupancy (Ignoring core)
      ---      ----    --------- --------- -----
        1    0.930001  11110001110000
        2    0.051559  11101001110000
        5   -0.065483  01111001110000
        8   -0.133083  10110101110000
       17   -0.127661  11010011110000
       36   -0.168425  11110001101000
       71    0.102639  11110001011000
      211    0.050033  11110000110100
      386    0.109642  11110001010010
      701    0.090946  11110001100001
      717    0.072754  11010011100001

 State #    2  Energy =     -55.736080961  S =  0.500

      Det      Coef    Occupancy (Ignoring core)
      ---      ----    --------- --------- -----
        1    0.179558  11110001110000
       36    0.931434  11110001101000
       40   -0.060732  01111001101000
       43   -0.100580  10110101101000
       52   -0.076037  11010011101000
       71   -0.170409  11110001011000
      281    0.054491  11110000101100
      456    0.097247  11110001001010
      463    0.052737  10110101001010

 State #    3  Energy =     -55.604301099  S =  0.500

      Det      Coef    Occupancy (Ignoring core)
      ---      ----    --------- --------- -----
        1    0.068076  11110001110000
       36   -0.188824  11110001101000
       71   -0.945482  11110001011000
       78    0.067517  10110101011000
       87    0.078061  11010011011000
      316   -0.071241  11110000011100
      806    0.095893  11110001001001
      822    0.077285  11010011001001

 DENSITY MATRIX OVER ACTIVE MO-S

             1           2           3           4           5

    1    1.9768901
    2   -0.0090321   1.6350141
    3   -0.0139302  -0.0007747   1.6313765
    4    0.0014518  -0.0012813  -0.0031836   1.6541053
    5    0.1015539   0.0164503   0.0272892   0.0339294   0.0282528
    6    0.0050067  -0.1548534  -0.0024586  -0.0211398  -0.0017770
    7    0.0044069  -0.0011395   0.1390760   0.0320464   0.0058964

             6           7

    6    0.0346448
    7   -0.0026832   0.0397164

 FORMING THE "STANDARD FOCK OPERATOR" IN DIRECT AO INTEGRAL MODE...
 ONLY THE    1 CORE AND   21 VIRTUAL ORBITALS WILL BE CANONICALIZED

          ----------------------
          MCSCF NATURAL ORBITALS
          ----------------------

                      1          2          3          4          5
                  -15.9845     1.9829     1.6559     1.6497     1.6434
                     A          A          A          A          A   
    1  N  1  S    1.001204   0.008937  -0.010045   0.001807   0.002422
    2  N  1  S   -0.001872   0.436989  -0.168935   0.070172   0.055591
    3  N  1  S   -0.006310   0.306856  -0.269106   0.095824   0.083705
    4  N  1  X    0.000076  -0.024522   0.128755   0.459827   0.077036
    5  N  1  Y   -0.000063  -0.028274   0.040022  -0.070261   0.520386
    6  N  1  Z    0.001135   0.092830   0.582225  -0.101584  -0.017459
    7  N  1  X   -0.000010  -0.000721   0.075202   0.164504   0.044235
    8  N  1  Y   -0.000041   0.002391   0.043489  -0.021705   0.269978
    9  N  1  Z   -0.000479   0.010833   0.383162  -0.050454   0.012504
   10  N  1 XX    0.000359   0.001664  -0.010577   0.006695   0.005850
   11  N  1 YY   -0.000168  -0.002296  -0.012832  -0.001903  -0.004845
   12  N  1 ZZ   -0.000191   0.000632   0.023408  -0.004791  -0.001005
   13  N  1 XY   -0.000181  -0.000752  -0.001249  -0.004003  -0.014581
   14  N  1 XZ   -0.000085  -0.002168   0.003074   0.021570   0.004440
   15  N  1 YZ   -0.000113  -0.000769  -0.001470  -0.001557   0.024420
   16  H  2  S   -0.001732   0.175074   0.065376  -0.271910   0.256695
   17  H  2  S    0.000432  -0.000451   0.024803  -0.036500   0.066612
   18  H  2  X   -0.000670   0.024610   0.009243  -0.014702   0.028131
   19  H  2  Y    0.000596  -0.021018  -0.006275   0.028506  -0.001995
   20  H  2  Z    0.000415  -0.007301   0.021755   0.007835  -0.011169
   21  H  3  S   -0.001892   0.209389   0.083938  -0.178753  -0.339148
   22  H  3  S    0.000297   0.007758   0.020955  -0.024268  -0.082715
   23  H  3  X   -0.000564   0.022129   0.011724   0.008258  -0.022062
   24  H  3  Y   -0.000695   0.026363   0.014276  -0.023671  -0.013462
   25  H  3  Z    0.000509  -0.015312   0.020206   0.006102   0.019879
   26  H  4  S   -0.001967   0.174049   0.164953   0.345282   0.018952
   27  H  4  S    0.000598  -0.000456   0.034194   0.041400   0.012256
   28  H  4  X    0.001025  -0.034508  -0.019299  -0.033736   0.006290
   29  H  4  Y   -0.000191   0.005534   0.005499   0.008897   0.019320
   30  H  4  Z    0.000375  -0.004255   0.017186  -0.017142  -0.001662

                      6          7          8
                    0.0285     0.0210     0.0187
                     A          A          A   
    1  N  1  S    0.101618  -0.181491   0.114099
    2  N  1  S    0.328980  -0.613795   0.346962
    3  N  1  S   -0.006103  -0.186500   0.010622
    4  N  1  X    0.180673   0.434429   0.805322
    5  N  1  Y    0.722791   0.210412  -0.365214
    6  N  1  Z    0.136820  -0.619728   0.203655
    7  N  1  X   -0.005685   0.077584   0.066246
    8  N  1  Y   -0.022786   0.031827  -0.033610
    9  N  1  Z   -0.038347   0.070776  -0.052142
   10  N  1 XX   -0.029703   0.028140   0.015643
   11  N  1 YY    0.027352  -0.033218  -0.020352
   12  N  1 ZZ    0.002351   0.005078   0.004709
   13  N  1 XY    0.046236   0.000626   0.023984
   14  N  1 XZ    0.003003  -0.045042  -0.038328
   15  N  1 YZ   -0.014716  -0.021531   0.028700
   16  H  2  S   -0.620424   0.425330   0.358617
   17  H  2  S   -0.141770   0.050621   0.098134
   18  H  2  X   -0.057887   0.027862   0.011836
   19  H  2  Y    0.025569  -0.053431  -0.026748
   20  H  2  Z    0.005039   0.024694   0.006162
   21  H  3  S    0.491307   0.701340  -0.083234
   22  H  3  S    0.144934   0.112482  -0.015825
   23  H  3  X    0.021429   0.025981  -0.041518
   24  H  3  Y    0.011960   0.072535   0.006452
   25  H  3  Z   -0.019932   0.005258   0.002256
   26  H  4  S   -0.342989   0.157812  -0.792369
   27  H  4  S   -0.056537  -0.006217  -0.142775
   28  H  4  X    0.029716  -0.032123   0.082711
   29  H  4  Y   -0.020898   0.002491  -0.012067
   30  H  4  Z    0.003295   0.007587  -0.019171

          ------------------------
          MCSCF OPTIMIZED ORBITALS
          ------------------------

                      1          2          3          4          5
                  -15.9845     0.0000     0.0000     0.0000     0.0000
                     A          A          A          A          A   
    1  N  1  S    1.001204  -0.002843  -0.007425  -0.003511  -0.015919
    2  N  1  S   -0.001872   0.400981   0.010730   0.011888  -0.194961
    3  N  1  S   -0.006310   0.304267   0.049080   0.059032  -0.283404
    4  N  1  X    0.000076  -0.006007   0.391440   0.028620   0.028723
    5  N  1  Y   -0.000063  -0.010332   0.002225   0.453463   0.018141
    6  N  1  Z    0.001135   0.052316   0.000233  -0.004243   0.580307
    7  N  1  X   -0.000010   0.007099   0.170414   0.028617   0.042205
    8  N  1  Y   -0.000041   0.014104   0.017072   0.271130   0.037872
    9  N  1  Z   -0.000479   0.012760   0.025774   0.025288   0.387370
   10  N  1 XX    0.000359   0.003773   0.003648   0.007549  -0.010918
   11  N  1 YY   -0.000168  -0.004254  -0.002548  -0.007294  -0.012909
   12  N  1 ZZ   -0.000191   0.000481  -0.001100  -0.000255   0.023827
   13  N  1 XY   -0.000181  -0.002588  -0.008835  -0.017426  -0.001523
   14  N  1 XZ   -0.000085  -0.003155   0.026655   0.001357  -0.001136
   15  N  1 YZ   -0.000113  -0.000972  -0.000844   0.026323  -0.002187
   16  H  2  S   -0.001732   0.204905  -0.259737   0.336513   0.122826
   17  H  2  S    0.000432   0.004915  -0.030877   0.084189   0.031788
   18  H  2  X   -0.000670   0.027498  -0.010813   0.033737   0.012671
   19  H  2  Y    0.000596  -0.022983   0.030183  -0.006871  -0.012365
   20  H  2  Z    0.000415  -0.006679   0.009288  -0.011732   0.020278
   21  H  3  S   -0.001892   0.215543  -0.222719  -0.369935   0.123070
   22  H  3  S    0.000297   0.006528  -0.033659  -0.092492   0.025276
   23  H  3  X   -0.000564   0.022711   0.009791  -0.026186   0.011152
   24  H  3  Y   -0.000695   0.028217  -0.025367  -0.012753   0.019319
   25  H  3  Z    0.000509  -0.013897   0.012192   0.021593   0.018408
   26  H  4  S   -0.001967   0.206028   0.437434  -0.010755   0.120046
   27  H  4  S    0.000598   0.003502   0.061969   0.010013   0.028731
   28  H  4  X    0.001025  -0.038040  -0.041949   0.010209  -0.015430
   29  H  4  Y   -0.000191   0.007107   0.012994   0.019554   0.003852
   30  H  4  Z    0.000375  -0.004251  -0.012177  -0.000095   0.020220

                      6          7          8          9         10
                    0.0000     0.0000     0.0000     0.1471     0.2013
                     A          A          A          A          A   
    1  N  1  S    0.230967   0.051403   0.012524  -0.139041   0.000957
    2  N  1  S    0.783206   0.136516   0.042043  -0.211251  -0.007746
    3  N  1  S    0.178434  -0.065458  -0.052789   1.402776  -0.101633
    4  N  1  X   -0.068011   0.972049   0.007624   0.029288   0.127490
    5  N  1  Y   -0.046013  -0.085088   0.873381   0.030126  -0.058903
    6  N  1  Z    0.675649  -0.026399  -0.075998  -0.207146  -0.008412
    7  N  1  X   -0.046659   0.105910  -0.005348  -0.147318  -0.775147
    8  N  1  Y   -0.040082  -0.019893   0.021903  -0.099327   0.169030
    9  N  1  Z   -0.082818  -0.019444   0.008488   0.466742   0.045595
   10  N  1 XX   -0.030132   0.018949  -0.025334   0.072596  -0.051972
   11  N  1 YY    0.031866  -0.025905   0.023063  -0.027464   0.035528
   12  N  1 ZZ   -0.001734   0.006956   0.002271  -0.045132   0.016444
   13  N  1 XY    0.022166   0.030939   0.033240  -0.030158   0.025304
   14  N  1 XZ    0.029200  -0.049063   0.004755  -0.044181  -0.105049
   15  N  1 YZ    0.023413   0.013907  -0.025776  -0.034830   0.014616
   16  H  2  S   -0.461626   0.332216  -0.554931   0.350139   0.220478
   17  H  2  S   -0.060736   0.074799  -0.142536  -0.931859  -0.854572
   18  H  2  X   -0.038670   0.008198  -0.047237  -0.087083  -0.036938
   19  H  2  Y    0.046606  -0.036876   0.018722   0.021038   0.029530
   20  H  2  Z   -0.018329   0.017586   0.007806   0.033730   0.071742
   21  H  3  S   -0.476206   0.290334   0.615569   0.222440   0.235357
   22  H  3  S   -0.056448   0.059030   0.157476  -0.759887  -0.829683
   23  H  3  X   -0.027656  -0.021240   0.037448  -0.093535  -0.009670
   24  H  3  Y   -0.056962   0.034957   0.025382  -0.036708  -0.027738
   25  H  3  Z   -0.010614   0.001244  -0.015624   0.060887   0.046168
   26  H  4  S   -0.487068  -0.679446  -0.016495   0.319095  -0.528725
   27  H  4  S   -0.056748  -0.136483  -0.005228  -0.785748   1.898801
   28  H  4  X    0.061943   0.063746  -0.006888   0.097118  -0.102646
   29  H  4  Y   -0.012191  -0.013070  -0.012878  -0.011908   0.031252
   30  H  4  Z   -0.011527  -0.014351   0.011490  -0.007622  -0.076838

                     11         12         13         14         15
                    0.2204     0.5360     0.5952     0.6510     0.7926
                     A          A          A          A          A   
    1  N  1  S    0.027203  -0.074029  -0.021945  -0.040020  -0.290140
    2  N  1  S    0.054998  -0.085407  -0.159698  -0.146982  -0.669590
    3  N  1  S   -0.174487   0.547176  -0.405281  -0.039891   1.115705
    4  N  1  X    0.046697  -0.290076   0.038148  -0.392829   0.056630
    5  N  1  Y   -0.020505  -0.495928  -0.383180   0.167353  -0.028469
    6  N  1  Z    0.041820  -0.438688   0.465695   0.255372   0.238071
    7  N  1  X   -0.110637   0.745755  -0.079341   1.834391  -0.238626
    8  N  1  Y    0.481744   0.992273   1.194188  -0.527426   0.168364
    9  N  1  Z   -0.127676   0.575222  -0.874499  -0.538818  -0.146918
   10  N  1 XX    0.016423  -0.016290   0.077384  -0.006502  -0.089150
   11  N  1 YY   -0.010499  -0.001995  -0.040157   0.018028   0.135178
   12  N  1 ZZ   -0.005924   0.018285  -0.037227  -0.011526  -0.046028
   13  N  1 XY   -0.088016  -0.021708   0.018250  -0.033029  -0.073672
   14  N  1 XZ    0.001671   0.017191  -0.010610  -0.062243   0.053317
   15  N  1 YZ    0.076840   0.023755  -0.009769   0.009637  -0.061068
   16  H  2  S    0.531091  -0.289930  -0.019911   0.751830   0.031931
   17  H  2  S   -1.748187  -0.461332  -0.607086   0.458126  -0.354618
   18  H  2  X   -0.041785   0.007175  -0.124949   0.179221   0.057656
   19  H  2  Y    0.047813   0.069103  -0.090606  -0.089167   0.426134
   20  H  2  Z    0.023634   0.079295  -0.006695   0.079021  -0.154456
   21  H  3  S   -0.575716   0.094056   0.680425   0.401487   0.113128
   22  H  3  S    1.976281   0.747459   0.616262   0.151396  -0.152435
   23  H  3  X    0.050694   0.107567  -0.044760   0.027164   0.282667
   24  H  3  Y    0.068707   0.027400   0.122712   0.104398  -0.366266
   25  H  3  Z   -0.047834  -0.041635  -0.088185   0.029271   0.009134
   26  H  4  S    0.079379  -0.461987   0.501216  -0.506041  -0.001492
   27  H  4  S   -0.118428  -0.475754  -0.060268  -0.774103  -0.188320
   28  H  4  X   -0.027657   0.062662   0.015732   0.179241  -0.080081
   29  H  4  Y   -0.030465  -0.013168   0.110232  -0.110403  -0.183027
   30  H  4  Z   -0.012687   0.064989  -0.052857  -0.117404   0.190101

                     16         17         18         19         20
                    0.9817     1.0343     1.2560     1.4048     1.4693
                     A          A          A          A          A   
    1  N  1  S   -0.499371  -0.237952  -0.025802  -0.378813  -0.352333
    2  N  1  S   -1.057406  -0.500779  -0.052442  -0.798508  -0.726308
    3  N  1  S    2.105965   1.163412   0.088407   1.372187   1.414528
    4  N  1  X    0.071537  -0.017368  -0.206491   0.019990  -0.017106
    5  N  1  Y    0.034956   0.067778   0.150044   0.008531  -0.086120
    6  N  1  Z    0.143752   0.062210  -0.017480  -0.034544  -0.011888
    7  N  1  X   -0.320016   0.057841   0.947655   0.467380  -0.484057
    8  N  1  Y   -0.213237  -0.445503  -0.401244   0.142050  -0.361833
    9  N  1  Z   -0.045744   0.347665  -0.020017   0.552289   0.685693
   10  N  1 XX   -0.063215   0.040444   0.073555   0.061104   0.090425
   11  N  1 YY   -0.164216   0.055379  -0.070651   0.147174  -0.045739
   12  N  1 ZZ    0.227431  -0.095822  -0.002904  -0.208278  -0.044686
   13  N  1 XY   -0.002588   0.171646   0.041223  -0.010481  -0.017823
   14  N  1 XZ    0.022357   0.046471   0.034986  -0.012487   0.027544
   15  N  1 YZ    0.035711   0.242185  -0.077171  -0.015574   0.112221
   16  H  2  S   -0.368386  -0.031488   0.475809  -0.274735  -0.470007
   17  H  2  S   -0.246792  -0.033018   0.148463  -0.044149   0.013301
   18  H  2  X   -0.045355   0.077432  -0.561706  -0.227651   0.061806
   19  H  2  Y   -0.136508   0.151615  -0.201014  -0.330541   0.030532
   20  H  2  Z    0.363806   0.190961  -0.394629  -0.312003  -0.483232
   21  H  3  S   -0.450783  -0.290774   0.020548  -0.262491  -0.527435
   22  H  3  S   -0.301267  -0.237977   0.034807  -0.064406  -0.348469
   23  H  3  X   -0.028781  -0.301880   0.207742  -0.380744   0.052034
   24  H  3  Y    0.200587  -0.247810  -0.013698   0.080620  -0.082067
   25  H  3  Z    0.337785  -0.454353  -0.015506  -0.395964   0.424545
   26  H  4  S   -0.200428  -0.246130  -0.494611  -0.533720  -0.248525
   27  H  4  S   -0.268429  -0.210720  -0.239870  -0.237994   0.002390
   28  H  4  X    0.004375   0.215550  -0.102499  -0.191517   0.146840
   29  H  4  Y    0.014914   0.425648   0.436734  -0.565951   0.321054
   30  H  4  Z    0.282041   0.028289   0.376218  -0.057034  -0.709066

                     21         22         23         24         25
                    1.6246     1.8635     1.9003     1.9482     2.1153
                     A          A          A          A          A   
    1  N  1  S    0.131669  -0.015064   0.074236  -0.160027   0.059309
    2  N  1  S    0.262135   0.005234   0.248352  -0.386602   0.110180
    3  N  1  S   -0.538173   0.667134   0.908391  -0.396247  -0.338803
    4  N  1  X   -0.084448   0.442237  -0.434045  -0.115672  -0.122517
    5  N  1  Y   -0.203018   0.024598   0.075973   0.310392  -0.012592
    6  N  1  Z    0.026485   0.025880   0.233460  -0.200008  -0.004538
    7  N  1  X    0.691771   0.182333  -0.022494  -0.086962  -0.090237
    8  N  1  Y   -0.453523  -0.197697   0.108231  -0.227901  -0.064432
    9  N  1  Z   -0.240593   0.241262   0.354004  -0.114123  -0.406842
   10  N  1 XX   -0.045660  -0.175272  -0.027194   0.206501  -0.082546
   11  N  1 YY   -0.069977   0.221210  -0.126323  -0.113871   0.880813
   12  N  1 ZZ    0.115637  -0.045937   0.153517  -0.092631  -0.798267
   13  N  1 XY   -0.077430   0.130648   0.148332   0.141856   0.105036
   14  N  1 XZ   -0.026143  -0.126285   0.172080  -0.037353   0.290594
   15  N  1 YZ    0.161529   0.080001   0.099713  -0.235247   0.152808
   16  H  2  S    0.329509  -0.085509  -0.192418   0.051354   0.103885
   17  H  2  S    0.398575  -0.124908  -0.499883  -0.155376  -0.006084
   18  H  2  X    0.423975  -0.154564  -0.799912   0.264130  -0.054306
   19  H  2  Y    0.164342   0.282226   0.662179   0.651751  -0.144400
   20  H  2  Z   -0.505403  -0.402645   0.185637   0.007080   0.316143
   21  H  3  S    0.304518  -0.203706  -0.139953   0.036442   0.098859
   22  H  3  S   -0.213026   0.296884  -0.067982   0.306501  -0.068166
   23  H  3  X   -0.687878   0.037320  -0.488011   0.145060  -0.020046
   24  H  3  Y    0.109665   0.581877  -0.067960   0.811030   0.296386
   25  H  3  Z    0.295377  -0.029295   0.276915  -0.256277   0.581840
   26  H  4  S   -0.189060  -0.167686  -0.184145   0.097058   0.174986
   27  H  4  S   -0.030332  -0.513621  -0.005241   0.192819   0.156047
   28  H  4  X   -0.203267   0.898558   0.033970  -0.564222  -0.242680
   29  H  4  Y    0.138905  -0.149350  -0.318139   0.202306   0.162668
   30  H  4  Z    0.460589   0.253291  -0.330071  -0.135129   0.111533

                     26         27         28         29
                    2.3105     2.5942     2.6515     3.0315
                     A          A          A          A   
    1  N  1  S    0.079016  -0.085338   0.069739   0.011972
    2  N  1  S    0.130200  -0.015700   0.109030  -0.049837
    3  N  1  S   -0.625074   2.256433  -0.379018  -0.843470
    4  N  1  X    0.066545  -0.025921   0.484182  -0.308808
    5  N  1  Y   -0.007162  -0.284314  -0.184560  -0.327786
    6  N  1  Z   -0.047991   0.328746  -0.041401  -0.061010
    7  N  1  X    0.000757  -0.264917   1.357921  -0.489447
    8  N  1  Y    0.362200  -0.683033  -0.486307  -0.490540
    9  N  1  Z   -0.349005   0.599108  -0.152167  -0.016242
   10  N  1 XX    0.608947   0.784983   0.241398  -0.892521
   11  N  1 YY   -0.414473  -0.178673  -0.302551   0.410976
   12  N  1 ZZ   -0.194474  -0.606310   0.061152   0.481546
   13  N  1 XY    0.656018   0.174155   0.301879   1.217648
   14  N  1 XZ   -0.098523  -0.447945   1.184516  -0.331563
   15  N  1 YZ    0.644112  -0.747568  -0.412927  -0.508505
   16  H  2  S    0.124266  -0.396120   1.065345   0.805082
   17  H  2  S    0.030574   0.021155   0.423635   0.240334
   18  H  2  X    0.153769   0.046984   0.676510   0.556184
   19  H  2  Y   -0.035380   0.249388  -0.432541  -0.496488
   20  H  2  Z   -0.129889   0.220716  -0.212810  -0.430524
   21  H  3  S    0.291376  -1.284713   0.300039  -0.883005
   22  H  3  S    0.151329  -0.516252   0.073500  -0.281714
   23  H  3  X    0.551886  -0.535846  -0.062400  -0.449145
   24  H  3  Y   -0.093741  -0.666308   0.181494  -0.547056
   25  H  3  Z    0.215463   0.576072  -0.063336   0.420903
   26  H  4  S    0.168488  -0.775807  -0.937996   1.014537
   27  H  4  S    0.028896  -0.198576  -0.417113   0.293557
   28  H  4  X   -0.192424   0.582687   0.697675  -0.780781
   29  H  4  Y   -0.559517  -0.038011  -0.272310   0.124419
   30  H  4  Z    0.252447   0.356459  -0.000245  -0.411720
 .....DONE WITH MCSCF ITERATIONS.....
 CPU     0: STEP CPU TIME=     9.64 TOTAL CPU TIME=         10.6 (      0.2 MIN)
 TOTAL WALL CLOCK TIME=         10.6 SECONDS, CPU UTILIZATION IS    99.91%

     ----------------------------------------------------------------
     PROPERTY VALUES FOR THE MCSCF SELF-CONSISTENT FIELD WAVEFUNCTION
     ----------------------------------------------------------------

          -----------------
          ENERGY COMPONENTS
          -----------------

         WAVEFUNCTION NORMALIZATION =       1.0000000000

                ONE ELECTRON ENERGY =     -94.3308275215
                TWO ELECTRON ENERGY =      27.1660403233
           NUCLEAR REPULSION ENERGY =      11.4248260995
                                      ------------------
                       TOTAL ENERGY =     -55.7399610987

 ELECTRON-ELECTRON POTENTIAL ENERGY =      27.1660403233
  NUCLEUS-ELECTRON POTENTIAL ENERGY =    -150.1353843591
   NUCLEUS-NUCLEUS POTENTIAL ENERGY =      11.4248260995
                                      ------------------
             TOTAL POTENTIAL ENERGY =    -111.5445179362
               TOTAL KINETIC ENERGY =      55.8045568375
                 VIRIAL RATIO (V/T) =       1.9988424648

          ---------------------------------------
          MULLIKEN AND LOWDIN POPULATION ANALYSES
          ---------------------------------------

     ATOMIC MULLIKEN POPULATION IN EACH MOLECULAR ORBITAL

                      1          2          3          4          5

                  2.000000   1.982875   1.655914   1.649668   1.643433

    1             2.000839   1.331283   1.531227   0.907014   1.100683
    2            -0.000226   0.192422   0.017140   0.242896   0.207661
    3            -0.000311   0.271916   0.029626   0.105891   0.325707
    4            -0.000303   0.187256   0.077921   0.393868   0.009381

                      6          7          8

                  0.028456   0.020953   0.018700

    1             0.013141   0.011273   0.010012
    2             0.008274   0.002731   0.001387
    3             0.004515   0.006670   0.000095
    4             0.002525   0.000279   0.007207
 WARNING! MCSCF POPULATIONS SHOWN ABOVE ARE FOR THE NATURAL ORBITALS.
 IGNORE THE ABOVE DATA FOR MCSCF FUNCTIONS WHICH ARE NOT OF -FORS- TYPE.
 THE FOLLOWING POPULATIONS ARE CORRECT FOR ANY MCSCF WAVEFUNCTION.

               ----- POPULATIONS IN EACH AO -----
                             MULLIKEN      LOWDIN
              1  N  1  S      2.00250     1.89912
              2  N  1  S      0.82331     0.57669
              3  N  1  S      0.66157     0.40104
              4  N  1  X      0.65676     0.57479
              5  N  1  Y      0.72043     0.65837
              6  N  1  Z      0.87590     0.82088
              7  N  1  X      0.25490     0.38069
              8  N  1  Y      0.36969     0.43924
              9  N  1  Z      0.52269     0.55990
             10  N  1 XX      0.00056     0.18230
             11  N  1 YY      0.00144     0.15325
             12  N  1 ZZ      0.00413     0.14270
             13  N  1 XY      0.00619     0.01257
             14  N  1 XZ      0.00539     0.01279
             15  N  1 YZ      0.00000     0.00933
             16  H  2  S      0.57419     0.44429
             17  H  2  S      0.04275     0.14708
             18  H  2  X      0.02354     0.04135
             19  H  2  Y      0.01876     0.03720
             20  H  2  Z      0.01304     0.03205
             21  H  3  S      0.63420     0.48924
             22  H  3  S      0.05020     0.14436
             23  H  3  X      0.01820     0.03223
             24  H  3  Y      0.02302     0.04534
             25  H  3  Z      0.01848     0.04251
             26  H  4  S      0.59050     0.46044
             27  H  4  S      0.03065     0.14491
             28  H  4  X      0.03547     0.05914
             29  H  4  Y      0.00953     0.02354
             30  H  4  Z      0.01198     0.03265

          ----- MULLIKEN ATOMIC OVERLAP POPULATIONS -----
          (OFF-DIAGONAL ELEMENTS NEED TO BE MULTIPLIED BY 2)

             1           2           3           4

    1    6.0173146
    2    0.2847811   0.4026133
    3    0.2934299  -0.0091065   0.4650983
    4    0.3099457  -0.0060031  -0.0053117   0.3795029

          TOTAL MULLIKEN AND LOWDIN ATOMIC POPULATIONS
       ATOM         MULL.POP.    CHARGE          LOW.POP.     CHARGE
    1 N             6.905471    0.094529         6.823653    0.176347
    2 H             0.672285    0.327715         0.701977    0.298023
    3 H             0.744110    0.255890         0.753677    0.246323
    4 H             0.678134    0.321866         0.720694    0.279306

          MULLIKEN SPHERICAL HARMONIC POPULATIONS
       ATOM           S       P       D      F      G      H      I    TOTAL
    1 N             3.49    3.40    0.02   0.00   0.00   0.00   0.00    6.91
    2 H             0.62    0.06    0.00   0.00   0.00   0.00   0.00    0.67
    3 H             0.68    0.06    0.00   0.00   0.00   0.00   0.00    0.74
    4 H             0.62    0.06    0.00   0.00   0.00   0.00   0.00    0.68

          ---------------------
          ELECTROSTATIC MOMENTS
          ---------------------

 POINT   1           X           Y           Z (BOHR)    CHARGE
                -0.000003   -0.000002   -0.177185        1.00 (A.U.)
         DX          DY          DZ         /D/  (DEBYE)
    -0.453994   -0.329833    2.147242    2.219358
 ...... END OF PROPERTY EVALUATION ......
 CPU     0: STEP CPU TIME=     0.01 TOTAL CPU TIME=         10.6 (      0.2 MIN)
 TOTAL WALL CLOCK TIME=         10.6 SECONDS, CPU UTILIZATION IS    99.91%

     -------------------------------------------------
     GMC-PT/GMC-QDPT or general MCSCF input parameters
     -------------------------------------------------
 # of frozen core orbs. =         0 ->         0
 # of doubly occ. orbs. =         1
 # of active      orbs. =         7
 # of virtual     orbs. =        21
 # of active electrons  =         7
 # of states in CI      =         3
 Highest state in CI    =         3
 kstate =  1 1 1
 avecoe =  0.333 0.333 0.333
 State symmetry           = A           
 Assigned symmetry number = 1

 <<<Act. MO sym.: 1111111

 <<<Division of 1-ext.:  0
 <<<Division of 2-ext.:  0

     ------------------------
     Orbital canonicalization
     ------------------------

 MOs are canonicalized for core, virtual, and invariant-active orbital spaces.
 This is a part of the GMC-QDPT calculation.
 SCHWARZ INEQUALITY OVERHEAD:       465 INTEGRALS, T=        0.00
 DIRECT TRANSFORMATION SKIPS AO INTEGRAL STORAGE ON DISK.

 Averaged energy =     -55.739961099

 State #    1  Energy =     -55.879501236  S =  0.500
 State #    2  Energy =     -55.736080961  S =  0.500
 State #    3  Energy =     -55.604301099  S =  0.500

 Orbital energies for filled orbital space
  -15.984533
 Orbital energies for active orbital space
   -1.517065  -0.986221  -0.850658  -0.743685   0.359095
    0.413110   0.218521
 Orbital energies for external orbital space
    0.147058   0.201344   0.220433   0.536048   0.595193
    0.650951   0.792593   0.981742   1.034273   1.255967
    1.404756   1.469268   1.624582   1.863502   1.900254
    1.948171   2.115293   2.310517   2.594192   2.651508
    3.031475

 Zero values mean non-canonical orbitals.
 ... done with orbital canonicalization ...
 CPU     0: STEP CPU TIME=     0.61 TOTAL CPU TIME=         11.2 (      0.2 MIN)
 TOTAL WALL CLOCK TIME=         11.2 SECONDS, CPU UTILIZATION IS    99.91%

     --------------------------------------------
     PARTIAL TWO ELECTRON INTEGRAL TRANSFORMATION
     --------------------------------------------

 NUMBER OF CORE MOLECULAR ORBITALS     =    0
 NUMBER OF OCCUPIED MOLECULAR ORBITALS =    8
 TOTAL NUMBER OF MOLECULAR ORBITALS    =   29
 TOTAL NUMBER OF ATOMIC ORBITALS       =   30
 THRESHOLD FOR KEEPING TRANSFORMED 2E- INTEGRALS = 1.000E-09
 AO INTEGRALS WILL BE CALCULATED IN DIRECT MODE...
 DIRECT TRANSFORMATION SKIPS AO INTEGRAL STORAGE ON DISK.
 SCHWARZ INEQUALITY OVERHEAD:       465 INTEGRALS, T=        0.00

 PLAN A: REQUIREMENTS FOR FULLY IN-MEMORY TRANSFORMATION:
 # OF WORDS AVAILABLE =            100000000
 # OF WORDS NEEDED    =               221798

 PARALLEL ONLY WORKS WITH THE SEGMENTED ALGORITHM.
 ADJUSTING MEMORY TO USE SEGMENTED ALGORITHM.


 PLAN B: REQUIREMENTS FOR THE SEGMENTED TRANSFORMATION:
       MINIMUM=         124148 WORDS FOR 1 MOLECULAR ORBITAL PER PASS
       MAXIMUM=         221798 WORDS FOR ALL MOLECULAR ORBITALS IN 1 PASS
              (          13950 EXTRA WORDS INCLUDES 1 EXTRA ORBITAL/PASS)
 THIS RUN USES=         221798 WORDS,
 DISTRIBUTING   1 PASSES EACH CONTAINING     8 ORBITALS OVER   1 PROCESSORS.

 CHOOSING SEGMENTED PARTIAL TRANSFORMATION...
 DIRECT TRANSFORMATION SKIPS AO INTEGRAL STORAGE ON DISK.
 PASS #   1 TOOK        0.04 SECONDS.
 TOTAL NUMBER OF TRANSFORMED 2E- INTEGRALS KEPT =        29226
 ... END OF INTEGRAL TRANSFORMATION ...
 CPU     0: STEP CPU TIME=     0.04 TOTAL CPU TIME=         11.3 (      0.2 MIN)
 TOTAL WALL CLOCK TIME=         11.3 SECONDS, CPU UTILIZATION IS    99.91%

     --------     ------------------------------------------
     GMC-QDPT     Program written by H.Nakano (Kyushu Univ.)
     --------     ------------------------------------------

 *** Reference space

 Reference type: ORMAS (= Occupation restricted multiple active space)
 # of orbitals          =  7
 # of minimum electrons =  7
 # of maximum electrons =  7
 State symmetry    =    1 (input)
 2*Sz              =    1 (input)
 Spin multiplicity =    2 (input)
 Dimension of reference space =      1225  (from      3432 walks)

 Dimension of reference space =      1225  (from      1225 walks)

 <<<Ionized spaces for Ref-CI:
      0:         1225 /   -1-0:         1960 /  0-1-0:         2891

 ***                    ***
 *** Reference space CI ***
 ***                    ***

 Converged after   34 iterations

 Reference wavefunctions:

 State #    1  Energy =     -55.879501236  S =  0.500

      Det      Coef    Occupancy (Ignoring core)
      ---      ----    --------- --------- -----
        1    0.976358  11110001110000
       36    0.056598  11110001101000
      393    0.058886  10110101010010
      717    0.067187  11010011100001

 State #    2  Energy =     -55.736080961  S =  0.500

      Det      Coef    Occupancy (Ignoring core)
      ---      ----    --------- --------- -----
        1   -0.059617  11110001110000
       36    0.981069  11110001101000
      463    0.059394  10110101001010

 State #    3  Energy =     -55.604301099  S =  0.500

      Det      Coef    Occupancy (Ignoring core)
      ---      ----    --------- --------- -----
       71   -0.979256  11110001011000
      822    0.067929  11010011001001

 Davidson method: CPU/Wall time =           0.45 /           0.45 sec.

 Oscillator strength (invalid if E(1)/=E(GS)):
 -----------------------------------------
   State                        f
 -----------------------------------------
     2     F(REF-CI)=        0.0013508713
     3     F(REF-CI)=        0.0023342026
 -----------------------------------------

 Dipole moment matrix elements, x, y, z, in A.U.

 Dimension of ionized spaces for PT:
 (N-2) space:         1715 /  (N-1) space:         2842 /  N space:         2891
 (N+1) space:         2842 /  (N+2) space:         1715

 <<<Ionized spaces for internal:
         0:         1225 /      -1-0:         1960 /     0-1-0:         2891
  -1-0-1-0:         2842 / 0-1-0-1-0:         3381

 Diagonal elements of averaged one-particle density matrix:
       2       3       4       5       6       7       8
  0.9937  0.9882  0.9862  0.9924  0.0118  0.0110  0.0167
  0.9891  0.6613  0.6576  0.6629  0.0094  0.0079  0.0118

 Orbital energies:
 -------- Doubly-occupied orbitals (highest several orbs.) -------
             1
 -1.598453D+01
 -------- Active orbitals ----------------------------------------
             2            3            4            5            6
 -1.517065D+00-9.862213D-01-8.506584D-01-7.436851D-01 3.590949D-01
             7            8
  4.131101D-01 2.185212D-01
 -------- External orbitals (lowest several orbs.) ---------------
             9           10           11           12           13
  1.470577D-01 2.013441D-01 2.204332D-01 5.360480D-01 5.951935D-01
            14           15           16           17           18
  6.509508D-01 7.925930D-01 9.817418D-01 1.034273D+00 1.255967D+00

 *** Quasi-degeneracy checking

 === Det (|Ci| > 1.0D-01 and dE < 5.0D-03)

 # of small denominators (single excitations)
 State       dEmin  dE < 5.0D-03  dE < 5.0D-04  dE < 5.0D-05  dE < 5.0D-06
 ----- ----------- ------------- ------------- ------------- -------------
     1    5.00D-03             0             0             0             0
     2    5.00D-03             0             0             0             0
     3    5.00D-03             0             0             0             0

 # of small denominators (double excitations)
 State       dEmin  dE < 5.0D-03  dE < 5.0D-04  dE < 5.0D-05  dE < 5.0D-06
 ----- ----------- ------------- ------------- ------------- -------------
     1    5.00D-03             0             0             0             0
     2    5.00D-03             0             0             0             0
     3    5.00D-03             0             0             0             0

 *** Zeroth-Order Setup (Granovsky's zeroth-order vectors)
 Zeroth-order effective Hamiltonian
  (= Sum_i e(i)*<I|a+(i)a(i)|J> ):
                   1            2            3
     1 -7.347530D+00
     2  1.104892D-02-7.262035D+00
     3  1.760167D-03 2.948941D-03-7.118006D+00

 Zeroth-order vectors:
 State #    1
       MC st            1           2           3
       Coeff    9.920D-01  -1.259D-01  -5.953D-03
 State #    2
       MC st            2           1           3
       Coeff   -9.918D-01  -1.258D-01   2.205D-02
 State #    3
       MC st            3           2           1
       Coeff    9.997D-01   2.112D-02   8.681D-03

 *** GMC-QDPT computation

 (Integral reading:  CPU/Wall time =           0.00 /           0.00 sec.)

 One-external:
   0 -ionized terms: CPU/Wall time =           0.03 /           0.03 sec.
 (-1)-ionized terms: CPU/Wall time =           0.08 /           0.08 sec.
 (+1)-ionized terms: CPU/Wall time =           0.03 /           0.02 sec.
 (+1)-ionized terms: CPU/Wall time =           0.01 /           0.00 sec.
 (+2)-ionized terms: CPU/Wall time =           0.00 /           0.00 sec.

 Internal:
 # of macro loops for internal contribution =         1 (input)
 Loop:    1
 Dimension of internal CISD space     =         0  (after screening)
 Space construction: CPU/Wall time =           0.02 /           0.02 sec.
 Internal terms:     CPU/Wall time =           0.00 /           0.00 sec.

 Two-external:
   0 -ionized terms: CPU/Wall time =           0.05 /           0.06 sec.
 (-1)-ionized terms: CPU/Wall time =           1.00 /           1.00 sec.
 (-2)-ionized terms: CPU/Wall time =           0.17 /           0.17 sec.

 Total time:         CPU/Wall time =           1.39 /           1.38 sec.

 ***                  ***
 *** GMC-QDPT Results ***
 ***                  ***

 Diagonal elements of effective Hamiltonian:
 Heff(  1) =   -55.97566199
 Heff(  2) =   -55.84632250
 Heff(  3) =   -55.71547822

 Off-diagonal elements of effective Hamiltonian:
                   1            2
     2  1.589684D-02
     3 -1.626176D-03 2.846002D-03

 ******** GMC-QDPT energies ********
 ----------------------------------------------------------------------------
   State                        1st order                           2nd order
 ----------------------------------------------------------------------------
     1     E(REF-CI)=      -55.8795012358   E(GMC-QDPT2)=      -55.9776017876
     2     E(REF-CI)=      -55.7360809612   E(GMC-QDPT2)=      -55.8444509199
     3     E(REF-CI)=      -55.6043010991   E(GMC-QDPT2)=      -55.7154100036
 ----------------------------------------------------------------------------

 Excitation energies (invalid if E(1)/=E(GS)):
 ----------------------------------------------------------------------------
   State                        1st order                           2nd order
 ----------------------------------------------------------------------------

     TZ Sorted GMC-PT ENERGIES:
         1      -55.9776017876
         2      -55.8444509199
         3      -55.7154100036
     2     E(REF-CI)=        3.9026665 eV   E(GMC-QDPT2)=        3.6232215 eV
     3     E(REF-CI)=        7.4885810 eV   E(GMC-QDPT2)=        7.1346055 eV
 ----------------------------------------------------------------------------

 Main characters of perturbed GMC-QDPT states:

 State #    1  Energy =     -55.977601788  S =  0.500

      Det      Coef    Occupancy (Ignoring core)
      ---      ----    --------- --------- -----
        1    0.976670  11110001110000
       36    0.051261  11110001101000
      393    0.058882  10110101010010
      717    0.067107  11010011100001

 State #    2  Energy =     -55.844450920  S =  0.500

      Det      Coef    Occupancy (Ignoring core)
      ---      ----    --------- --------- -----
        1   -0.054289  11110001110000
       36    0.981375  11110001101000
      463    0.059407  10110101001010

 State #    3  Energy =     -55.715410004  S =  0.500

      Det      Coef    Occupancy (Ignoring core)
      ---      ----    --------- --------- -----
       71   -0.979268  11110001011000
      822    0.067935  11010011001001

 <<<Max |V/de| = 2.420D-02  Thresh = 1.000D+00

 Oscillator strength (invalid if E(1)/=E(GS)):
 ----------------------------------------------------------------------------
   State                        1st order                           2nd order
 ----------------------------------------------------------------------------
     2     F(REF-CI)=        0.0013508713     F(GMC-PT2)=        0.0013061281
     3     F(REF-CI)=        0.0023342026     F(GMC-PT2)=        0.0022785057
 ----------------------------------------------------------------------------

 Dipole moment matrix elements, x, y, z, in A.U.
States    1    1       -0.2100540760       -0.1405732051        0.7278406575
States    1    2       -0.0217399998       -0.0223629008        0.1172235044
States    1    3        0.0972453655       -0.0332001413        0.0497637148
States    2    1       -0.0217399998       -0.0223629008        0.1172235044
States    2    2       -0.0402118038       -0.1891050477        0.2849202282
States    2    3       -0.1362246260        0.1681256304       -0.0019898097
States    3    1        0.0972453655       -0.0332001413        0.0497637148
States    3    2       -0.1362246260        0.1681256304       -0.0019898097
States    3    3       -0.4704190602       -0.2233929587        0.2650375898

 Oscillator strength (valid only when positive): 
 ----------------------------------------------------------------------------
  States                        1st order                           2nd order
 ----------------------------------------------------------------------------
  1  1     F(REF-CI)=        0.0000000000     F(GMC-PT2)=        0.0000000000
  1  2     F(REF-CI)=       -0.0013508713     F(GMC-PT2)=       -0.0013061281
  1  3     F(REF-CI)=       -0.0023342026     F(GMC-PT2)=       -0.0022785057
  2  1     F(REF-CI)=        0.0013508713     F(GMC-PT2)=        0.0013061281
  2  2     F(REF-CI)=        0.0000000000     F(GMC-PT2)=        0.0000000000
  2  3     F(REF-CI)=       -0.0041395299     F(GMC-PT2)=       -0.0040284282
  3  1     F(REF-CI)=        0.0023342026     F(GMC-PT2)=        0.0022785057
  3  2     F(REF-CI)=        0.0041395299     F(GMC-PT2)=        0.0040284282
  3  3     F(REF-CI)=        0.0000000000     F(GMC-PT2)=        0.0000000000
 CPU     0: STEP CPU TIME=     1.92 TOTAL CPU TIME=         13.2 (      0.2 MIN)
 TOTAL WALL CLOCK TIME=         13.2 SECONDS, CPU UTILIZATION IS    99.92%

     !!! DIABATIZATION FOR REF CI STATES !!!

 *******************************************************
          $DMO GROUP FOUND IN THE INPUT.
        DIABATIZATION OF ADIABATIC STATES BEGINS.
     PROGRAMMED BY TAO ZENG (CARLETON UNIVERSITY).
               Email: toby.zeng@carleton.ca
     See T. Zeng, J. Chem. Phys. 2017, 146, 144103
 *******************************************************

 *************************************************************************
     STEP 1: TRANSFORMATION OF ADIABATIC STATES TO THE DMO REPRESENTATION
         See Atchity and Ruedenberg, J. Chem. Phys. 1999, 111, 2910
 *************************************************************************

Read in Diabatic Molecualr Orbitals:

                      1          2          3          4          5

    1  N  1  S    0.008609   0.000000   0.000000  -0.013219   0.279491
    2  N  1  S    0.442914  -0.000000   0.000000  -0.184329   0.867803
    3  N  1  S    0.276913   0.000000  -0.000000  -0.288315   0.144236
    4  N  1  X   -0.000000   0.493155  -0.024636  -0.000000  -0.000000
    5  N  1  Y    0.000000   0.024636   0.493155  -0.000000   0.000000
    6  N  1  Z    0.090197   0.000000   0.000000   0.593421   0.705309
    7  N  1  X   -0.000000   0.210628  -0.010522   0.000000   0.000000
    8  N  1  Y    0.000000   0.010522   0.210628  -0.000000  -0.000000
    9  N  1  Z   -0.004381   0.000000   0.000000   0.381592  -0.106092
   10  N  1 XX   -0.000457   0.010719  -0.000535  -0.012387   0.006153
   11  N  1 YY   -0.000457  -0.010719   0.000535  -0.012387   0.006153
   12  N  1 ZZ    0.000914  -0.000000   0.000000   0.024773  -0.012306
   13  N  1 XY    0.000000  -0.000618  -0.012377  -0.000000   0.000000
   14  N  1 XZ   -0.000000   0.026529  -0.001325  -0.000000   0.000000
   15  N  1 YZ    0.000000   0.001325   0.026529  -0.000000   0.000000
   16  H  2  S    0.194462  -0.176074   0.343485   0.112865  -0.523343
   17  H  2  S    0.003574  -0.023812   0.046452   0.024014  -0.054445
   18  H  2  X    0.018760   0.009101   0.022834   0.009336  -0.039151
   19  H  2  Y   -0.032493   0.022287  -0.020044  -0.016171   0.067811
   20  H  2  Z   -0.009251   0.008464  -0.016511   0.018769  -0.010566
   21  H  3  S    0.194462  -0.209430  -0.324227   0.112865  -0.523343
   22  H  3  S    0.003574  -0.028322  -0.043847   0.024014  -0.054445
   23  H  3  X    0.018760   0.006781  -0.023627   0.009336  -0.039151
   24  H  3  Y    0.032493  -0.024174  -0.017723   0.016171  -0.067811
   25  H  3  Z   -0.009251   0.010067   0.015585   0.018769  -0.010566
   26  H  4  S    0.194462   0.385503  -0.019258   0.112865  -0.523343
   27  H  4  S    0.003574   0.052134  -0.002604   0.024014  -0.054445
   28  H  4  X   -0.037519  -0.032295   0.001613  -0.018672   0.078302
   29  H  4  Y    0.000000   0.001067   0.021353  -0.000000   0.000000
   30  H  4  Z   -0.009251  -0.018530   0.000926   0.018769  -0.010566

                      6          7

    1  N  1  S    0.000000  -0.000000
    2  N  1  S    0.000000  -0.000000
    3  N  1  S   -0.000000   0.000000
    4  N  1  X   -0.930415  -0.002083
    5  N  1  Y   -0.002083   0.930415
    6  N  1  Z   -0.000000   0.000000
    7  N  1  X   -0.046866  -0.000105
    8  N  1  Y   -0.000105   0.046866
    9  N  1  Z   -0.000000   0.000000
   10  N  1 XX    0.001538   0.000003
   11  N  1 YY   -0.001538  -0.000003
   12  N  1 ZZ   -0.000000   0.000000
   13  N  1 XY   -0.000004   0.001776
   14  N  1 XZ    0.039985   0.000090
   15  N  1 YZ    0.000090  -0.039985
   16  H  2  S   -0.362630  -0.631354
   17  H  2  S   -0.065964  -0.114846
   18  H  2  X    0.002763  -0.037520
   19  H  2  Y    0.037435   0.040736
   20  H  2  Z    0.001882   0.003276
   21  H  3  S   -0.365454   0.629724
   22  H  3  S   -0.066477   0.114549
   23  H  3  X    0.002595   0.037532
   24  H  3  Y   -0.037617   0.040567
   25  H  3  Z    0.001896  -0.003268
   26  H  4  S    0.728084   0.001630
   27  H  4  S    0.132441   0.000297
   28  H  4  X   -0.062317  -0.000140
   29  H  4  Y    0.000055  -0.024345
   30  H  4  Z   -0.003778  -0.000008

NUMBER OF SUB ACTIVE SPACES:   1
ROTATE ACTIVE MOS TO DMOS IN EACH SUB-SPACE

SPACE  1:

OVERLAP BETWEEN ORTHONORMAL AND PRE-ORTHONORMAL REF. DMOS

             1           2           3           4           5

    1    0.9874075  -0.0170658  -0.0186573  -0.0043216   0.0015631
    2   -0.0170658   1.0245588  -0.0321461  -0.0261908   0.0511127
    3   -0.0186573  -0.0321461   0.9345405  -0.0207520   0.0289464
    4   -0.0043216  -0.0261908  -0.0207520   0.9970546  -0.0059180
    5    0.0015631   0.0511127   0.0289464  -0.0059180   1.0732537
    6    0.0028764   0.0339162  -0.0272334  -0.0316220   0.0141453
    7   -0.0008223   0.0202173   0.0467496   0.0191436   0.0310060

             6           7

    1    0.0028764  -0.0008223
    2    0.0339162   0.0202173
    3   -0.0272334   0.0467496
    4   -0.0316220   0.0191436
    5    0.0141453   0.0310060
    6    1.0162053  -0.0149203
    7   -0.0149203   1.0449625
REFERENCE DMOS AFTER ORTHONORMALIZATION:

                      1          2          3          4          5

    1  N  1  S    0.007869  -0.013221  -0.008433  -0.012186   0.261446
    2  N  1  S    0.445487  -0.037285  -0.021038  -0.179750   0.810058
    3  N  1  S    0.278742  -0.009193  -0.005691  -0.287926   0.133087
    4  N  1  X    0.010840   0.511918  -0.034648  -0.016479  -0.010571
    5  N  1  Y    0.010302   0.023405   0.486990  -0.005400  -0.039729
    6  N  1  Z    0.092519  -0.015990  -0.004121   0.599864   0.661958
    7  N  1  X    0.003679   0.207867  -0.004999   0.003723  -0.008922
    8  N  1  Y    0.004587   0.017028   0.224849   0.004627  -0.007939
    9  N  1  Z   -0.002154   0.014699   0.012623   0.383285  -0.097808
   10  N  1 XX   -0.000368   0.009844  -0.000647  -0.012124   0.005208
   11  N  1 YY   -0.000721  -0.011072  -0.000358  -0.012744   0.006215
   12  N  1 ZZ    0.001090   0.001228   0.001005   0.024869  -0.011424
   13  N  1 XY   -0.000272  -0.001092  -0.013431  -0.000362   0.000350
   14  N  1 XZ    0.000339   0.024771   0.000653   0.001878  -0.001701
   15  N  1 YZ    0.000602   0.003065   0.030527   0.001491   0.000182
   16  H  2  S    0.204530  -0.105787   0.405909   0.117893  -0.470960
   17  H  2  S    0.004691  -0.014137   0.055092   0.024747  -0.047342
   18  H  2  X    0.019827   0.012837   0.028576   0.010969  -0.036819
   19  H  2  Y   -0.033351   0.015026  -0.024770  -0.015753   0.061517
   20  H  2  Z   -0.009450   0.008398  -0.016980   0.018582  -0.009803
   21  H  3  S    0.189238  -0.188050  -0.374667   0.075340  -0.482101
   22  H  3  S    0.002591  -0.026443  -0.053300   0.017828  -0.050364
   23  H  3  X    0.018770   0.007368  -0.025128   0.008259  -0.037267
   24  H  3  Y    0.032481  -0.019879  -0.019860   0.013149  -0.062404
   25  H  3  Z   -0.008744   0.011268   0.017941   0.019558  -0.010660
   26  H  4  S    0.203675   0.386231   0.036028   0.144318  -0.516373
   27  H  4  S    0.004421   0.050245   0.005081   0.029303  -0.054882
   28  H  4  X   -0.038719  -0.034540  -0.004753  -0.021379   0.075544
   29  H  4  Y    0.000481   0.002310   0.024194   0.001045  -0.000055
   30  H  4  Z   -0.009551  -0.017234   0.000809   0.018215  -0.008905

                      6          7

    1  N  1  S   -0.003928  -0.006951
    2  N  1  S   -0.017728  -0.018983
    3  N  1  S   -0.011420   0.001815
    4  N  1  X   -0.934327  -0.023065
    5  N  1  Y    0.023345   0.869761
    6  N  1  Z    0.009174  -0.029933
    7  N  1  X   -0.053026  -0.004456
    8  N  1  Y    0.006105   0.034702
    9  N  1  Z    0.013072  -0.004784
   10  N  1 XX    0.000718  -0.000081
   11  N  1 YY   -0.001631   0.000252
   12  N  1 ZZ    0.000913  -0.000171
   13  N  1 XY   -0.000309   0.002313
   14  N  1 XZ    0.038622   0.000145
   15  N  1 YZ    0.000263  -0.039718
   16  H  2  S   -0.341797  -0.613206
   17  H  2  S   -0.063193  -0.112043
   18  H  2  X    0.003319  -0.036477
   19  H  2  Y    0.034989   0.038737
   20  H  2  Z    0.001912   0.003703
   21  H  3  S   -0.345604   0.631167
   22  H  3  S   -0.063059   0.112786
   23  H  3  X    0.002914   0.037909
   24  H  3  Y   -0.035094   0.041230
   25  H  3  Z    0.002692  -0.004158
   26  H  4  S    0.715878   0.015536
   27  H  4  S    0.130482   0.002043
   28  H  4  X   -0.061934  -0.002017
   29  H  4  Y    0.000298  -0.024437
   30  H  4  Z   -0.002401   0.000178

 -------------------------------------------
       MAXIMIZING MORMO OVERLAP TERM        
 -------------------------------------------
   SWEEP    VALUE       PROGRESS
     0     5.77180
     1     6.96384     1.19203243
     2     6.97622     0.01238360
     3     6.97622     0.00000034
     4     6.97622     0.00000000
     5     6.97622     0.00000000
 THE ROTATION IS DONE
ACTIVE ORBITALS AFTER MORMO:

                      1          2          3          4          5

    1  N  1  S    0.007032  -0.017643  -0.013951  -0.012243   0.232161
    2  N  1  S    0.433342  -0.038181  -0.035497  -0.186002   0.773388
    3  N  1  S    0.310015   0.020847   0.038864  -0.279476   0.172175
    4  N  1  X    0.006059   0.505978  -0.040414  -0.023841   0.000961
    5  N  1  Y   -0.000305   0.013445   0.458035  -0.019377  -0.026106
    6  N  1  Z    0.086060  -0.028411  -0.015377   0.599192   0.656045
    7  N  1  X    0.009791   0.187106   0.013153   0.031709  -0.031686
    8  N  1  Y    0.018624   0.039245   0.271400   0.029113  -0.029433
    9  N  1  Z    0.013887   0.042639   0.035987   0.383453  -0.089443
   10  N  1 XX    0.002662   0.008503   0.007172  -0.011962  -0.028616
   11  N  1 YY   -0.003340  -0.009016  -0.007331  -0.011433   0.030606
   12  N  1 ZZ    0.000678   0.000513   0.000159   0.023395  -0.001991
   13  N  1 XY   -0.001824  -0.008722  -0.018727  -0.002590   0.022525
   14  N  1 XZ   -0.001805   0.018755   0.000302   0.000831   0.028556
   15  N  1 YZ    0.000555   0.001816   0.024728  -0.002015   0.025010
   16  H  2  S    0.189577  -0.148512   0.356657   0.110142  -0.458438
   17  H  2  S    0.003974  -0.007174   0.085723   0.030072  -0.056615
   18  H  2  X    0.026371  -0.003538   0.035244   0.011926  -0.038957
   19  H  2  Y   -0.020951   0.021512  -0.009220  -0.010557   0.047466
   20  H  2  Z   -0.007175   0.012061  -0.011864   0.018937  -0.017493
   21  H  3  S    0.189092  -0.197269  -0.345415   0.092330  -0.498649
   22  H  3  S    0.002859  -0.032734  -0.089113   0.019553  -0.059499
   23  H  3  X    0.021200   0.006134  -0.024985   0.010354  -0.030153
   24  H  3  Y    0.025612  -0.018669  -0.010089   0.016263  -0.058617
   25  H  3  Z   -0.013534   0.015748   0.021526   0.017799  -0.008710
   26  H  4  S    0.188191   0.385512   0.001043   0.123695  -0.503253
   27  H  4  S    0.001567   0.050951   0.013618   0.031226  -0.059594
   28  H  4  X   -0.035545  -0.037046   0.008749  -0.015127   0.064607
   29  H  4  Y    0.007102   0.013958   0.019388   0.003578  -0.011597
   30  H  4  Z   -0.004814  -0.012451   0.002470   0.020448  -0.013031

                      6          7

    1  N  1  S   -0.042358   0.008678
    2  N  1  S   -0.094696   0.025923
    3  N  1  S    0.091917  -0.058701
    4  N  1  X   -0.919496  -0.027260
    5  N  1  Y    0.025394   0.875524
    6  N  1  Z    0.033272  -0.059177
    7  N  1  X   -0.088354  -0.004561
    8  N  1  Y    0.009382   0.023891
    9  N  1  Z    0.001866   0.022037
   10  N  1 XX   -0.018030  -0.026358
   11  N  1 YY    0.026202   0.023720
   12  N  1 ZZ   -0.008173   0.002638
   13  N  1 XY   -0.031838   0.031406
   14  N  1 XZ    0.052689   0.007656
   15  N  1 YZ   -0.012371  -0.026602
   16  H  2  S   -0.365652  -0.572706
   17  H  2  S   -0.077031  -0.145661
   18  H  2  X   -0.010063  -0.047482
   19  H  2  Y    0.041688   0.020802
   20  H  2  Z   -0.017910   0.007924
   21  H  3  S   -0.356190   0.600019
   22  H  3  S   -0.070653   0.154608
   23  H  3  X    0.019700   0.039042
   24  H  3  Y   -0.041448   0.023702
   25  H  3  Z   -0.000902  -0.014736
   26  H  4  S    0.702759   0.031721
   27  H  4  S    0.139024   0.003904
   28  H  4  X   -0.065179  -0.011550
   29  H  4  Y    0.013928  -0.011804
   30  H  4  Z    0.010845   0.012498

Actually Used Diabatic Molecualr Orbitals:

                      1          2          3          4          5

    1  N  1  S    0.007032  -0.017643  -0.013951  -0.012243   0.232161
    2  N  1  S    0.433342  -0.038181  -0.035497  -0.186002   0.773388
    3  N  1  S    0.310015   0.020847   0.038864  -0.279476   0.172175
    4  N  1  X    0.006059   0.505978  -0.040414  -0.023841   0.000961
    5  N  1  Y   -0.000305   0.013445   0.458035  -0.019377  -0.026106
    6  N  1  Z    0.086060  -0.028411  -0.015377   0.599192   0.656045
    7  N  1  X    0.009791   0.187106   0.013153   0.031709  -0.031686
    8  N  1  Y    0.018624   0.039245   0.271400   0.029113  -0.029433
    9  N  1  Z    0.013887   0.042639   0.035987   0.383453  -0.089443
   10  N  1 XX    0.002662   0.008503   0.007172  -0.011962  -0.028616
   11  N  1 YY   -0.003340  -0.009016  -0.007331  -0.011433   0.030606
   12  N  1 ZZ    0.000678   0.000513   0.000159   0.023395  -0.001991
   13  N  1 XY   -0.001824  -0.008722  -0.018727  -0.002590   0.022525
   14  N  1 XZ   -0.001805   0.018755   0.000302   0.000831   0.028556
   15  N  1 YZ    0.000555   0.001816   0.024728  -0.002015   0.025010
   16  H  2  S    0.189577  -0.148512   0.356657   0.110142  -0.458438
   17  H  2  S    0.003974  -0.007174   0.085723   0.030072  -0.056615
   18  H  2  X    0.026371  -0.003538   0.035244   0.011926  -0.038957
[...]
      123    0.031238   -0.031238  +-2200+
      262   -0.031012   -0.031012  2+02-0+
      285    0.030042   -0.030042  02+2200
      157    0.027493   -0.027493  220+-0+
      142    0.026821    0.026821  22+0200
      122    0.025777    0.025777  +2-200+
      472   -0.025396   -0.025396  2+020-+
      248   -0.025214    0.025214  2+02200
       16   -0.024249    0.024249  222000+
      249    0.023208   -0.023208  20+2200
      859    0.021943   -0.021943  02+2002
      356    0.021879    0.021879  22+0020
      471    0.021249    0.021249  2++-0-+
      857   -0.020981   -0.020981  +202002
      716    0.020932    0.020932  22+0002
      143    0.020828    0.020828  220+200
       88    0.020256   -0.020256  202200+
       55   -0.020251   -0.020251  220-+0+
      283    0.020126    0.020126  +202200

 ---------------------------------------
    -DIABATIC STATES IN PROTOTYPES-     
 ---------------------------------------

     STATE:    1
 Group Ref#    Coefficients
     1    1    0.976677
     2    2   -0.000047
     3    3   -0.003237

WEIGHT OF LISTED PROTOTYPES:   95.39%

     STATE:    2
 Group Ref#    Coefficients
     1    1   -0.000047
     2    2    0.972818
     3    3    0.001712

WEIGHT OF LISTED PROTOTYPES:   94.64%

     STATE:    3
 Group Ref#    Coefficients
     1    1   -0.003237
     2    2    0.001712
     3    3    0.976459

WEIGHT OF LISTED PROTOTYPES:   95.35%

 --------------------------------------------------
 IN DIRECT MAX. DIABATIZATION FOR GMC-QDPT

 DIRECT MAXIMIZATION (DM) WITHOUT TRUNCATING ADIABATS
 EXPANSIONS INTO THE REFERENCE CONFIGURATION SPACE
 --------------------------------------------------

 -------------------------------------------
 - DM DIABT PT HAMILTONIAN MATRIX ELEMENTS -
 -------------------------------------------
                                            
 --- DIABATIC ENERGIES (DIAGONAL ELEMENT) ---       HARTREE            EV
 STATE #  1'S GMC-PT-LEVEL DIABATIC ENERGY=     -55.968310560       0.000000000
 STATE #  2'S GMC-PT-LEVEL DIABATIC ENERGY=     -55.726006986       6.593416082
 STATE #  3'S GMC-PT-LEVEL DIABATIC ENERGY=     -55.843145164       3.405923914

 --- DIABATIC COUPLINGS (OFF DIAGONAL ELEMENTS)---  HATREE            EV
 STATE #  1 &  2'S GMC-PT-LEVEL COUPLING  =       0.030521460       0.830531222
 STATE #  1 &  3'S GMC-PT-LEVEL COUPLING  =       0.023074298       0.627883625
 STATE #  2 &  3'S GMC-PT-LEVEL COUPLING  =      -0.032255738      -0.877723338

 ---------------------------------------
     - ROTATION TO DIABATIC STATES -    
 ---------------------------------------
 ROWS=ADIABATIC, COLUMNS=DIABATIC STATES

             1           2           3

    1   -0.9691186   0.1432949   0.2006879
    2   -0.2270522  -0.2009982  -0.9529150
    3   -0.0962100  -0.9690543   0.2273265

 ---------------------------------------
          - DIABATIC STATES -           
 ---------------------------------------

 State #    1  Energy =     -55.968310560

      Det      Coef        Coefp    Occupancy (Ignoring core)
      ---      ----        ----    --------- --------- -----
        1    0.957959   -0.957959  222+000
       17    0.115563    0.115563  22-+00+
      701   -0.084060   -0.084060  22++00-
      717   -0.076016   -0.076016  220+002
        4    0.071945   -0.071945  2-2++00
      176   -0.069931    0.069931  2+2+-00
      393   -0.065701   -0.065701  202+020
        3    0.052277    0.052277  22-++00
      141   -0.049998   -0.049998  22++-00
        6   -0.045921    0.045921  22200+0
      402    0.041022   -0.041022  2+-+0-+
       16    0.040275   -0.040275  222000+
      708    0.038438   -0.038438  2-++0+-
      215   -0.036124   -0.036124  022+200
      351    0.034644    0.034644  22++0-0
        7   -0.034216   -0.034216  22-+0+0
      227   -0.034089   -0.034089  +2-+-0+
      705   -0.033735   -0.033735  -2+++0-
      390    0.033103   -0.033103  -+2++-0
      218    0.032862   -0.032862  +-2+-+0
       51   -0.031503    0.031503  22+-00+
      212    0.029095    0.029095  +220200
       18    0.029079   -0.029079  2-2+00+
      122    0.028217    0.028217  +2-200+
      736   -0.026729    0.026729  2+2+00-
       76    0.025925    0.025925  2+2-0+0
      773    0.024697   -0.024697  +2-++0-
        2    0.024646   -0.024646  2220+00
      702    0.023945    0.023945  22+0+0-
      159    0.023591   -0.023591  -2++-0+
      113   -0.023417    0.023417  +-220+0
      192    0.023099   -0.023099  2+-+-0+
      179   -0.022635   -0.022635  202+200
      424   -0.022360   -0.022360  +-2++-0
      387   -0.022280    0.022280  2+20+-0
     1051   -0.021969   -0.021969  2+++0--
      143   -0.021890   -0.021890  220+200
      704    0.021889   -0.021889  2-+++0-
      184   -0.021465   -0.021465  -+2+-+0

 State #    2  Energy =     -55.726006986

      Det      Coef        Coefp    Occupancy (Ignoring core)
      ---      ----        ----    --------- --------- -----
       71   -0.960284    0.960284  2+22000
      806   -0.085485   -0.085485  2++200-
      822    0.078995   -0.078995  2+02002
       87    0.072505   -0.072505  2+-200+
      246   -0.060240   -0.060240  2++2-00
       73    0.058848   -0.058848  2+-2+00
      736   -0.048812    0.048812  2+2+00-
       86    0.047136    0.047136  2+2-00+
       36    0.046335    0.046335  22+2000
       78   -0.045818    0.045818  20220+0
      813    0.045335   -0.045335  20+20+-
       74   -0.044384    0.044384  2022+00
       77   -0.043703    0.043703  2+-20+0
      386    0.043147   -0.043147  2+2+0-0
      106   -0.042195   -0.042195  +222000
      122    0.040331    0.040331  +2-200+
      111    0.040180   -0.040180  +22-0+0
      456    0.039112    0.039112  2++20-0
      332   -0.036668    0.036668  ++-2-0+
      320    0.036488    0.036488  0+22200
      810   -0.035783   -0.035783  -++2+0-
       76   -0.034216   -0.034216  2+2-0+0
      323   -0.031124    0.031124  +022-+0
      317    0.030497   -0.030497  ++2-200
      180   -0.030191    0.030191  -+2+200
       99   -0.029200    0.029200  20-20++
      177    0.028843   -0.028843  2+20200
      807   -0.027813    0.027813  2++-+0-
        6    0.027323   -0.027323  22200+0
      192   -0.027268    0.027268  2+-+-0+
       38   -0.026391    0.026391  2202+00
      264    0.025387   -0.025387  -++2-0+
      878    0.025045    0.025045  ++-2+0-
      248    0.024975   -0.024975  2+02200
      183   -0.023221    0.023221  202+-+0
      391    0.023102   -0.023102  2+20020
      841   -0.022713    0.022713  +2+200-
       90    0.022545    0.022545  2+--+0+
      316    0.022016    0.022016  ++22-00
       51    0.021939   -0.021939  22+-00+
      421   -0.020916   -0.020916  +22+0-0

 State #    3  Energy =     -55.843145164

      Det      Coef        Coefp    Occupancy (Ignoring core)
      ---      ----        ----    --------- --------- -----
       36   -0.960197   -0.960197  22+2000
       39   -0.103328   -0.103328  2-+2+00
      246    0.077767    0.077767  2++2-00
       41   -0.074401    0.074401  22+-0+0
      351    0.065845    0.065845  22++0-0
      463    0.063630   -0.063630  20+2020
       52   -0.058605    0.058605  220200+
       38   -0.050043    0.050043  2202+00
       71   -0.046025    0.046025  2+22000
      701   -0.045720   -0.045720  22++00-
       51    0.045092   -0.045092  22+-00+
      106   -0.044680   -0.044680  +222000
      472   -0.044070   -0.044070  2+020-+
      285    0.035563   -0.035563  02+2200
       53   -0.035170   -0.035170  2-+200+
      297    0.034501   -0.034501  +202-0+
      460   -0.033534   -0.033534  -++2+-0
      288   -0.033046   -0.033046  +-+2-+0
      121   -0.031878    0.031878  +22-00+
      123    0.031539   -0.031539  +-2200+
       42    0.031065   -0.031065  22020+0
      145   -0.030254   -0.030254  -2++200
      282    0.029821    0.029821  +2+-200
      157    0.029205   -0.029205  220+-0+
       64    0.029045   -0.029045  2-020++
      142    0.028914    0.028914  22+0200
      806    0.026659    0.026659  2++200-
       73    0.025561   -0.025561  2+-2+00
       55   -0.024527   -0.024527  220-+0+
       16   -0.023754    0.023754  222000+
      716    0.023224    0.023224  22+0002
      457   -0.023099    0.023099  2++-+-0
      456    0.022991    0.022991  2++20-0
      148   -0.022822   -0.022822  2-++-+0
       86    0.022741    0.022741  2+2-00+
      249    0.022672   -0.022672  20+2200
      494    0.022602   -0.022602  +-+2+-0
      262   -0.022237   -0.022237  2+02-0+
      843   -0.021579   -0.021579  +202+0-
      367    0.021506   -0.021506  220+0-+
       43   -0.020978   -0.020978  2-+20+0
      859    0.020702   -0.020702  02+2002
      254    0.020509   -0.020509  -++2-+0

 ---------------------------------------
      - DIABATIC STATES IN CMO -        
 ---------------------------------------

 State #    1  Energy =     -55.968310560

      Det      Coef        Coefp    Occupancy (Ignoring core)
      ---      ----        ----    --------- --------- -----
        1    0.934146   -0.934146  222+000
       36   -0.271165   -0.271165  22+2000
       71   -0.097883    0.097883  2+22000
      717   -0.068413   -0.068413  220+002
      393   -0.057929   -0.057929  202+020
      143   -0.038419   -0.038419  220+200
        8   -0.038398    0.038398  2-2+0+0
      708    0.033297   -0.033297  2-++0+-
      753   -0.031286   -0.031286  202+002
      215   -0.030218   -0.030218  022+200
      106   -0.029498   -0.029498  +222000
       17    0.029389    0.029389  22-+00+
        3   -0.028619   -0.028619  22-++00
      703    0.028193    0.028193  220++0-
      402    0.026271   -0.026271  2+-+0-+
       16    0.026244   -0.026244  222000+
      716    0.025263    0.025263  22+0002
      122    0.024445    0.024445  +2-200+
      719   -0.024342   -0.024342  -2++002
      704    0.024034   -0.024034  2-+++0-
      705   -0.023695   -0.023695  -2+++0-
      157   -0.022806    0.022806  220+-0+
      213   -0.022628    0.022628  +2-+200
       76    0.022480    0.022480  2+2-0+0
       51   -0.022271    0.022271  22+-00+
      787    0.021771   -0.021771  +2-+002
      113   -0.020720    0.020720  +-220+0
      401    0.020218    0.020218  2+200-+
        4   -0.020178    0.020178  2-2++00

 State #    2  Energy =     -55.726006986

      Det      Coef        Coefp    Occupancy (Ignoring core)
      ---      ----        ----    --------- --------- -----
       71   -0.951550    0.951550  2+22000
       36   -0.176449   -0.176449  22+2000
        1   -0.151236    0.151236  222+000
      822    0.067134   -0.067134  2+02002
      248    0.039518   -0.039518  2+02200
      111    0.036002   -0.036002  +22-0+0
      122    0.035024    0.035024  +2-200+
      320    0.030676    0.030676  0+22200
      123   -0.028268    0.028268  +-2200+
      751    0.026866   -0.026866  2+20002
      813    0.026008   -0.026008  20+20+-
      808   -0.025842    0.025842  2+02+0-
       18    0.025059   -0.025059  2-2+00+
      262    0.024496    0.024496  2+02-0+
      391    0.023775   -0.023775  2+20020
       38   -0.023471    0.023471  2202+00
      809    0.023384   -0.023384  20+2+0-
      177    0.023331   -0.023331  2+20200
      824   -0.023113   -0.023113  -++2002
      892    0.022994    0.022994  ++-2002
      107    0.022956   -0.022956  +22-+00
      318   -0.022644   -0.022644  ++-2200
      894    0.022151    0.022151  0+22002
       78   -0.021760    0.021760  20220+0
      421   -0.021537   -0.021537  +22+0-0
       76    0.021232    0.021232  2+2-0+0
      463    0.021166   -0.021166  20+2020
      192   -0.020908    0.020908  2+-+-0+
       51    0.020753   -0.020753  22+-00+

 State #    3  Energy =     -55.843145164

      Det      Coef        Coefp    Occupancy (Ignoring core)
      ---      ----        ----    --------- --------- -----
       36   -0.928037   -0.928037  22+2000
        1   -0.247651    0.247651  222+000
       71    0.210036   -0.210036  2+22000
      463    0.053629   -0.053629  20+2020
      823    0.033201   -0.033201  20+2002
      123    0.031238   -0.031238  +-2200+
      262   -0.031013   -0.031013  2+02-0+
      285    0.030042   -0.030042  02+2200
      157    0.027493   -0.027493  220+-0+
      142    0.026821    0.026821  22+0200
      122    0.025777    0.025777  +2-200+
      472   -0.025395   -0.025395  2+020-+
      248   -0.025214    0.025214  2+02200
       16   -0.024249    0.024249  222000+
      249    0.023208   -0.023208  20+2200
      859    0.021943   -0.021943  02+2002
      356    0.021879    0.021879  22+0020
      471    0.021249    0.021249  2++-0-+
      857   -0.020981   -0.020981  +202002
      716    0.020932    0.020932  22+0002
      143    0.020828    0.020828  220+200
       88    0.020256   -0.020256  202200+
       55   -0.020251   -0.020251  220-+0+
      283    0.020126    0.020126  +202200

 ---------------------------------------
    -DIABATIC STATES IN PROTOTYPES-     
 ---------------------------------------

     STATE:    1
 Group Ref#    Coefficients
     1    1    0.976677
     2    2   -0.000047
     3    3   -0.003237

WEIGHT OF LISTED PROTOTYPES:   95.39%

     STATE:    2
 Group Ref#    Coefficients
     1    1   -0.000048
     2    2    0.972818
     3    3    0.001715

WEIGHT OF LISTED PROTOTYPES:   94.64%

     STATE:    3
 Group Ref#    Coefficients
     1    1   -0.003237
     2    2    0.001708
     3    3    0.976459

WEIGHT OF LISTED PROTOTYPES:   95.35%

     DIRECT MAX. DIABATIZATION FINISHED    
 CPU     0: STEP CPU TIME=     0.24 TOTAL CPU TIME=         13.4 (      0.2 MIN)
 TOTAL WALL CLOCK TIME=         13.4 SECONDS, CPU UTILIZATION IS    99.93%

DIABATS FOR SPIN-ORBIT CALCULATION ARE READY

TRANSITION DIPOLES BETWEEN ADIABATS (in A.U.):

STATE PAIR      X         Y         Z
    1    1 -0.210054 -0.140573  0.727841
    2    1 -0.021740 -0.022363  0.117224
    2    2 -0.040212 -0.189105  0.284920
    3    1  0.097245 -0.033200  0.049764
    3    2 -0.136225  0.168126 -0.001990
    3    3 -0.470419 -0.223393  0.265038


TRANSITION DIPOLES BETWEEN DIABATS (in A.U.):

STATE PAIR      X         Y         Z
    1    1 -0.201093 -0.152529  0.761504
    2    1  0.037327 -0.004043  0.001230
    2    2 -0.526514 -0.144305  0.253996
    3    1 -0.005403 -0.013631  0.005200
    3    2 -0.041583  0.165850 -0.013421
    3    3  0.006922 -0.256237  0.262299

TRANSITION DIPOLES BETWEEN DIRECT MAX. DIABATS (in A.U.):

STATE PAIR      X         Y         Z
    1    1 -0.201093 -0.152529  0.761504
    2    1  0.037327 -0.004043  0.001230
    2    2 -0.526514 -0.144304  0.253996
    3    1 -0.005403 -0.013631  0.005200
    3    2 -0.041581  0.165849 -0.013421
    3    3  0.006922 -0.256238  0.262299
 No $TRANST Group Found.
 Quit without doing spin-orbit coupling
 ..... DONE WITH MP2 ENERGY .....
 CPU     0: STEP CPU TIME=     0.01 TOTAL CPU TIME=         13.4 (      0.2 MIN)
 TOTAL WALL CLOCK TIME=         13.4 SECONDS, CPU UTILIZATION IS    99.93%
            100000000  WORDS OF DYNAMIC MEMORY USED
 EXECUTION OF GAMESS TERMINATED NORMALLY Wed Nov 16 18:59:05 2022
 DDI: 715512 bytes (0.7 MB / 0 MWords) used by master data server.

 ----------------------------------------
 CPU timing information for all processes
 ========================================
 0: 13.112 + 0.336 = 13.448
 ----------------------------------------
Note: The following floating-point exceptions are signalling: IEEE_DENORMAL
 ddikick.x: exited gracefully.
unset echo
----- accounting info -----
Files used on the master node io002 were:
-rw-r--r-- 1 bsonghao nooijen   20716 Nov 16 18:58 /scratch/bsonghao/nh3_diabatization_2d_at_mode_7_8_dist-0.3_-0.4.F05
-rw-r--r-- 1 bsonghao nooijen  363520 Nov 16 18:59 /scratch/bsonghao/nh3_diabatization_2d_at_mode_7_8_dist-0.3_-0.4.F09
-rw-r--r-- 1 bsonghao nooijen 1995920 Nov 16 18:59 /scratch/bsonghao/nh3_diabatization_2d_at_mode_7_8_dist-0.3_-0.4.F10
-rw-r--r-- 1 bsonghao nooijen  131264 Nov 16 18:59 /scratch/bsonghao/nh3_diabatization_2d_at_mode_7_8_dist-0.3_-0.4.F13
-rw-r--r-- 1 bsonghao nooijen  180312 Nov 16 18:59 /scratch/bsonghao/nh3_diabatization_2d_at_mode_7_8_dist-0.3_-0.4.F15
-rw-r--r-- 1 bsonghao nooijen       0 Nov 16 18:58 /scratch/bsonghao/nh3_diabatization_2d_at_mode_7_8_dist-0.3_-0.4.F16
-rw-r--r-- 1 bsonghao nooijen    9808 Nov 16 18:59 /scratch/bsonghao/nh3_diabatization_2d_at_mode_7_8_dist-0.3_-0.4.F70
-rw-r--r-- 1 bsonghao nooijen    9808 Nov 16 18:59 /scratch/bsonghao/nh3_diabatization_2d_at_mode_7_8_dist-0.3_-0.4.F71
-rw-r--r-- 1 bsonghao nooijen   19608 Nov 16 18:59 /scratch/bsonghao/nh3_diabatization_2d_at_mode_7_8_dist-0.3_-0.4.F72
-rw-r--r-- 1 bsonghao nooijen   19608 Nov 16 18:59 /scratch/bsonghao/nh3_diabatization_2d_at_mode_7_8_dist-0.3_-0.4.F73
-rw-r--r-- 1 bsonghao nooijen 1920824 Nov 16 18:59 /scratch/bsonghao/nh3_diabatization_2d_at_mode_7_8_dist-0.3_-0.4.F74
-rw-r--r-- 1 bsonghao nooijen       0 Nov 16 18:58 /scratch/bsonghao/nh3_diabatization_2d_at_mode_7_8_dist-0.3_-0.4.F75
-rw-r--r-- 1 bsonghao nooijen   58848 Nov 16 18:59 /scratch/bsonghao/nh3_diabatization_2d_at_mode_7_8_dist-0.3_-0.4.F76
-rw-r--r-- 1 bsonghao nooijen       0 Nov 16 18:58 /scratch/bsonghao/nh3_diabatization_2d_at_mode_7_8_dist-0.3_-0.4.F77
-rw-r--r-- 1 bsonghao nooijen    1864 Nov 16 18:59 /scratch/bsonghao/nh3_diabatization_2d_at_mode_7_8_dist-0.3_-0.4.F78
-rw-r--r-- 1 bsonghao nooijen   39208 Nov 16 18:59 /scratch/bsonghao/nh3_diabatization_2d_at_mode_7_8_dist-0.3_-0.4.F79
-rw-r--r-- 1 bsonghao nooijen     104 Nov 16 18:59 /scratch/bsonghao/nh3_diabatization_2d_at_mode_7_8_dist-0.3_-0.4.F80
-rw-r--r-- 1 bsonghao nooijen   13472 Nov 16 18:59 /scratch/bsonghao/nh3_diabatization_2d_at_mode_7_8_dist-0.3_-0.4.F81
-rw-r--r-- 1 bsonghao nooijen      16 Nov 16 18:59 /scratch/bsonghao/nh3_diabatization_2d_at_mode_7_8_dist-0.3_-0.4.F82
-rw-r--r-- 1 bsonghao nooijen   19216 Nov 16 18:59 /scratch/bsonghao/nh3_diabatization_2d_at_mode_7_8_dist-0.3_-0.4.F83
-rw-r--r-- 1 bsonghao nooijen   29712 Nov 16 18:59 /scratch/bsonghao/nh3_diabatization_2d_at_mode_7_8_dist-0.3_-0.4.F84
-rw-r--r-- 1 bsonghao nooijen  401576 Nov 16 18:59 /scratch/bsonghao/nh3_diabatization_2d_at_mode_7_8_dist-0.3_-0.4.F85
-rw-r--r-- 1 bsonghao nooijen  903672 Nov 16 18:59 /scratch/bsonghao/nh3_diabatization_2d_at_mode_7_8_dist-0.3_-0.4.F86
-rw-r--r-- 1 bsonghao nooijen     656 Nov 16 18:59 /scratch/bsonghao/nh3_diabatization_2d_at_mode_7_8_dist-0.3_-0.4.F87
-rw-r--r-- 1 bsonghao nooijen   34576 Nov 16 18:59 /scratch/bsonghao/nh3_diabatization_2d_at_mode_7_8_dist-0.3_-0.4.F88
-rw-r--r-- 1 bsonghao nooijen     240 Nov 16 18:59 /scratch/bsonghao/nh3_diabatization_2d_at_mode_7_8_dist-0.3_-0.4.F89
-rw-r--r-- 1 bsonghao nooijen       0 Nov 16 18:58 /scratch/bsonghao/nh3_diabatization_2d_at_mode_7_8_dist-0.3_-0.4.F90
-rw-r--r-- 1 bsonghao nooijen   13760 Nov 16 18:59 /scratch/bsonghao/nh3_diabatization_2d_at_mode_7_8_dist-0.3_-0.4.F91
-rw-r--r-- 1 bsonghao nooijen   22776 Nov 16 18:59 /scratch/bsonghao/nh3_diabatization_2d_at_mode_7_8_dist-0.3_-0.4.F92
-rw-r--r-- 1 bsonghao nooijen   23168 Nov 16 18:59 /scratch/bsonghao/nh3_diabatization_2d_at_mode_7_8_dist-0.3_-0.4.F93
-rw-r--r-- 1 bsonghao nooijen   22776 Nov 16 18:59 /scratch/bsonghao/nh3_diabatization_2d_at_mode_7_8_dist-0.3_-0.4.F94
-rw-r--r-- 1 bsonghao nooijen   13760 Nov 16 18:59 /scratch/bsonghao/nh3_diabatization_2d_at_mode_7_8_dist-0.3_-0.4.F95
-rw-r--r-- 1 bsonghao nooijen   29440 Nov 16 18:59 /scratch/bsonghao/nh3_diabatization_2d_at_mode_7_8_dist-0.3_-0.4.F96
-rw-r--r-- 1 bsonghao nooijen    1184 Nov 16 18:59 /scratch/bsonghao/nh3_diabatization_2d_at_mode_7_8_dist-0.3_-0.4.F97
-rw-r--r-- 1 bsonghao nooijen    9808 Nov 16 18:59 /scratch/bsonghao/nh3_diabatization_2d_at_mode_7_8_dist-0.3_-0.4.F98
-rw-r--r-- 1 bsonghao nooijen   30264 Nov 16 18:59 /scratch/bsonghao/nh3_diabatization_2d_at_mode_7_8_dist-0.3_-0.4.F99
ls: No match.
ls: No match.
ls: No match.
Wed 16 Nov 2022 06:59:08 PM EST
0.299u 0.032s 0:16.82 1.9%	0+0k 48+232io 0pf+0w
