----- GAMESS execution script 'rungms' -----
This job is running on host io002
under operating system Linux at Wed 16 Nov 2022 08:11:30 PM EST
Available scratch disk space (Kbyte units) at beginning of the job is
Filesystem       1K-blocks       Used   Available Use% Mounted on
/dev/sdc1      15378471580 3278917120 11318349060  23% /scratch
GAMESS temporary binary files will be written to /scratch/bsonghao
GAMESS supplementary output files will be written to /home/bsonghao/.gamess_ascii_files/267638
Copying input file nh3_diabatization_2d_at_mode_7_8_dist0.6_0.5.inp to your run's scratch directory...
cp nh3_diabatization_2d_at_mode_7_8_dist0.6_0.5.inp /scratch/bsonghao/nh3_diabatization_2d_at_mode_7_8_dist0.6_0.5.F05
unset echo
/home/bjb2chen/gamess/ddikick.x /home/bjb2chen/gamess/gamess.00.x nh3_diabatization_2d_at_mode_7_8_dist0.6_0.5 -ddi 1 1 io002 -scr /scratch/bsonghao

 Distributed Data Interface kickoff program.
 Initiating 1 compute processes on 1 nodes to run the following command:
 /home/bjb2chen/gamess/gamess.00.x nh3_diabatization_2d_at_mode_7_8_dist0.6_0.5 

          ******************************************************
          *         GAMESS VERSION = 02 AUG 2018 (R2)         *
          *             FROM IOWA STATE UNIVERSITY             *
          * M.W.SCHMIDT, K.K.BALDRIDGE, J.A.BOATZ, S.T.ELBERT, *
          *   M.S.GORDON, J.H.JENSEN, S.KOSEKI, N.MATSUNAGA,   *
          *          K.A.NGUYEN, S.J.SU, T.L.WINDUS,           *
          *       TOGETHER WITH M.DUPUIS, J.A.MONTGOMERY       *
          *         J.COMPUT.CHEM.  14, 1347-1363(1993)        *
          **************** 64 BIT LINUX VERSION ****************

  SINCE 1993, STUDENTS AND POSTDOCS WORKING AT IOWA STATE UNIVERSITY
  AND ALSO IN THEIR VARIOUS JOBS AFTER LEAVING ISU HAVE MADE IMPORTANT
  CONTRIBUTIONS TO THE CODE:
     IVANA ADAMOVIC, CHRISTINE AIKENS, YURI ALEXEEV, POOJA ARORA,
     ANDREY ASADCHEV, ROB BELL, PRADIPTA BANDYOPADHYAY, JONATHAN BENTZ,
     BRETT BODE, KURT BRORSEN, CALEB CARLIN, GALINA CHABAN, WEI CHEN,
     CHEOL HO CHOI, PAUL DAY, ALBERT DEFUSCO, NUWAN DESILVA, TIM DUDLEY,
     DMITRI FEDOROV, ALEX FINDLATER, GRAHAM FLETCHER, MARK FREITAG,
     KURT GLAESEMANN, ANASTASIA GUININA,
     DAN KEMP, GRANT MERRILL, NORIYUKI MINEZAWA, JONATHAN MULLIN,
     TAKESHI NAGATA, SEAN NEDD, HEATHER NETZLOFF, BOSILJKA NJEGIC, RYAN OLSON,
     MIKE PAK, BUU PHAM,
     SPENCER PRUITT, LUKE ROSKOP, JIM SHOEMAKER, LYUDMILA SLIPCHENKO,
     TONY SMITH, SAROM SOK LEANG, JIE SONG, TETSUYA TAKETSUGU, SIMON WEBB,
     PENG XU, SOOHAENG YOO, FEDERICO ZAHARIEV

  ADDITIONAL CODE HAS BEEN PROVIDED BY COLLABORATORS IN OTHER GROUPS:
     IOWA STATE UNIVERSITY:
          JOE IVANIC, AARON WEST, LAIMUTIS BYTAUTAS, KLAUS RUEDENBERG
     UNIVERSITY OF TOKYO: KIMIHIKO HIRAO, TAKAHITO NAKAJIMA,
          TAKAO TSUNEDA, MUNEAKI KAMIYA, SUSUMU YANAGISAWA,
          KIYOSHI YAGI, MAHITO CHIBA, SEIKEN TOKURA, NAOAKI KAWAKAMI
     UNIVERSITY OF AARHUS: FRANK JENSEN
     UNIVERSITY OF IOWA: VISVALDAS KAIRYS, HUI LI
     NATIONAL INST. OF STANDARDS AND TECHNOLOGY: WALT STEVENS, DAVID GARMER
     UNIVERSITY OF PISA: BENEDETTA MENNUCCI, JACOPO TOMASI
     UNIVERSITY OF MEMPHIS: HENRY KURTZ, PRAKASHAN KORAMBATH
     UNIVERSITY OF ALBERTA: TOBY ZENG, MARIUSZ KLOBUKOWSKI
     UNIVERSITY OF NEW ENGLAND: MARK SPACKMAN
     MIE UNIVERSITY: HIROAKI UMEDA
     NAT. INST. OF ADVANCED INDUSTRIAL SCIENCE AND TECHNOLOGY: KAZUO KITAURA
     MICHIGAN STATE UNIVERSITY:
          KAROL KOWALSKI, MARTA WLOCH, JEFFREY GOUR, JESSE LUTZ,
          WEI LI, JUN SHEN, J. EMILIANO DEUSTUA, PIOTR PIECUCH
     UNIVERSITY OF MINNESOTA:
          YINAN SHU
     UNIVERSITY OF SILESIA: MONIKA MUSIAL, STANISLAW KUCHARSKI
     FACULTES UNIVERSITAIRES NOTRE-DAME DE LA PAIX:
          OLIVIER QUINET, BENOIT CHAMPAGNE
     UNIVERSITY OF CALIFORNIA - SANTA BARBARA: BERNARD KIRTMAN
     INSTITUTE FOR MOLECULAR SCIENCE:
          KAZUYA ISHIMURA, MICHIO KATOUDA, AND SHIGERU NAGASE
     UNIVERSITY OF NOTRE DAME: ANNA POMOGAEVA, DAN CHIPMAN
     KYUSHU UNIVERSITY:
          HARUYUKI NAKANO,
          FENG LONG GU, JACEK KORCHOWIEC, MARCIN MAKOWSKI, AND YURIKO AOKI,
          HIROTOSHI MORI AND EISAKU MIYOSHI
     PENNSYLVANIA STATE UNIVERSITY:
          TZVETELIN IORDANOV, CHET SWALINA, JONATHAN SKONE,
          SHARON HAMMES-SCHIFFER
     WASEDA UNIVERSITY:
          MASATO KOBAYASHI, TOMOKO AKAMA, TSUGUKI TOUMA,
          TAKESHI YOSHIKAWA, YASUHIRO IKABATA, JUNJI SEINO,
          YUYA NAKAJIMA, HIROMI NAKAI
     NANJING UNIVERSITY: SHUHUA LI
     UNIVERSITY OF NEBRASKA:
          PEIFENG SU, DEJUN SI, NANDUN THELLAMUREGE, YALI WANG, HUI LI
     UNIVERSITY OF ZURICH: ROBERTO PEVERATI, KIM BALDRIDGE
     N. COPERNICUS UNIVERSITY AND JACKSON STATE UNIVERSITY:
          MARIA BARYSZ
     UNIVERSITY OF COPENHAGEN: Jimmy Kromann, CASPER STEINMANN
     TOKYO INSTITUTE OF TECHNOLOGY: HIROYA NAKATA
     NAGOYA UNIVERSITY: YOSHIO NISHIMOTO, STEPHAN IRLE
     MOSCOW STATE UNIVERSITY: VLADIMIR MIRONOV

 EXECUTION OF GAMESS BEGUN Wed Nov 16 20:11:31 2022

            ECHO OF THE FIRST FEW INPUT CARDS -
 INPUT CARD> $system kdiag=3 mwords=100 memddi=1000 parall=.t. $end                         
 INPUT CARD> $contrl runtyp=energy ispher=1 $end                                            
 INPUT CARD> $contrl icut=9 itol=20 inttyp=rysquad qmttol=1.0d-05 nosym=1 $end              
 INPUT CARD> $scf    npunch=2 conv=1.0d-06 dirscf=.t.      $end                             
 INPUT CARD> $contrl scftyp=mcscf  mult=2 maxit=200 icharg=1 mplevl=2 $end                  
 INPUT CARD> $guess  guess=moread norb=29 purify=.t. $end                                   
 INPUT CARD> $basis  gbasis=ccd $end                                                        
 INPUT CARD> $mcscf  cistep=gmcci fullnr=.t. finci=mos                                      
 INPUT CARD>         acurcy=1.d-6 maxit=100 $end                                            
 INPUT CARD> $trans  dirtrf=.t. $end                                                        
 INPUT CARD> $mrmp   mrpt=gmcpt rdvecs=.f. $end                                             
 INPUT CARD> $gmcpt  nmofzc=0 nmodoc=1 nmoact=7 nelact=7 stsym(1)=A                         
 INPUT CARD>         reftyp=ormas nspace=1 mstart(1)=2 mine(1)=7 maxe(1)=7                  
 INPUT CARD>         kstate(1)=1,1,1                                                        
 INPUT CARD>         wstate(1)=1,1,1                                                        
 INPUT CARD>         iwgt=0 thrwgt=-1.0 krot=.f. kszdoe=.f. knospn=.f.                      
 INPUT CARD>         thrde=-1.0 edshft=0.02 $end                                            
 INPUT CARD> $data                                                                          
 INPUT CARD> NH3+ 3 states calculation at NH3 structure.                                    
 INPUT CARD> c1                                                                             
 INPUT CARD>N 7.0 -0.03114459 -0.037373418000000005 -0.1693809542                           
 INPUT CARD>H 1.0 0.018515496999999992 1.0377637068 0.32763247110000004                     
 INPUT CARD>H 1.0 -0.440036415 -0.9563018818 0.05330361109999998                            
 INPUT CARD>H 1.0 0.85428333 0.43785447400000005 0.38844873710000005                        
 INPUT CARD>$end                                                                            
 INPUT CARD>--- OPTIMIZED RHF      MO-S --- GENERATED AT Mon Nov 14 16:47:08 2022           
 INPUT CARD>E=      -56.3825050291, E(NUC)=   11.8429239490                                 
 INPUT CARD> $VEC                                                                           
 INPUT CARD> 1  1-1.00134066E+00-2.25158504E-03 3.44925845E-03 0.00000000E+00 0.00000000E+00
 INPUT CARD> 1  2-2.13170927E-03 0.00000000E+00 0.00000000E+00 6.57129898E-04-6.87950443E-05
 INPUT CARD> 1  3-6.87950443E-05 1.37590089E-04 0.00000000E+00 0.00000000E+00 0.00000000E+00
 INPUT CARD> 1  4 3.25502815E-04-4.84772356E-04 3.62525460E-04-6.27912517E-04-3.45956485E-04
 INPUT CARD> 1  5 3.25502815E-04-4.84772356E-04 3.62525460E-04 6.27912517E-04-3.45956485E-04
 INPUT CARD> 1  6 3.25502815E-04-4.84772356E-04-7.25050921E-04 0.00000000E+00-3.45956485E-04
 INPUT CARD> 2  1 1.31286642E-02-4.05911371E-01-2.82090992E-01 0.00000000E+00 0.00000000E+00
 INPUT CARD> 2  2-7.71489043E-02 0.00000000E+00 0.00000000E+00 9.73717494E-03 6.62450916E-04
 INPUT CARD> 2  3 6.62450916E-04-1.32490183E-03 0.00000000E+00 0.00000000E+00 0.00000000E+00
 INPUT CARD> 2  4-1.96090317E-01-1.96656153E-02-1.74855877E-02 3.02859263E-02 8.68214399E-03
 INPUT CARD> 2  5-1.96090317E-01-1.96656153E-02-1.74855877E-02-3.02859263E-02 8.68214399E-03
 INPUT CARD> 2  6-1.96090317E-01-1.96656153E-02 3.49711754E-02 0.00000000E+00 8.68214399E-03
 INPUT CARD> 3  1 0.00000000E+00 0.00000000E+00 0.00000000E+00 4.48608762E-01 0.00000000E+00
 INPUT CARD> 3  2 0.00000000E+00 2.18692520E-01 0.00000000E+00 0.00000000E+00 1.30198027E-02
 INPUT CARD> 3  3-1.30198027E-02 0.00000000E+00 0.00000000E+00 2.71832968E-02 0.00000000E+00
 INPUT CARD> 3  4-1.85332726E-01-7.03958951E-02 8.47929477E-03 1.95242443E-02 8.32835058E-03
 INPUT CARD> 3  5-1.85332726E-01-7.03958951E-02 8.47929477E-03-1.95242443E-02 8.32835058E-03
 INPUT CARD> 3  6 3.70665453E-01 1.40791790E-01-2.53376884E-02 0.00000000E+00-1.66567012E-02
 INPUT CARD> 4  1 0.00000000E+00 0.00000000E+00 0.00000000E+00 0.00000000E+00 4.48608762E-01
 INPUT CARD> 4  2 0.00000000E+00 0.00000000E+00 2.18692520E-01 0.00000000E+00 0.00000000E+00
 INPUT CARD> 4  3 0.00000000E+00 0.00000000E+00-1.50339731E-02 0.00000000E+00 2.71832968E-02
 INPUT CARD> 4  4 3.21005698E-01 1.21929267E-01 1.95242443E-02-1.40653607E-02-1.44251263E-02
  100000000 WORDS OF MEMORY AVAILABLE

     BASIS OPTIONS
     -------------
     GBASIS=CCD          IGAUSS=       0      POLAR=NONE    
     NDFUNC=       0     NFFUNC=       0     DIFFSP=       F
     NPFUNC=       0      DIFFS=       F     BASNAM=        


     RUN TITLE
     ---------
  NH3+ 3 states calculation at NH3 structure.                                    

 THE POINT GROUP OF THE MOLECULE IS C1      
 THE ORDER OF THE PRINCIPAL AXIS IS     0

 ATOM      ATOMIC                      COORDINATES (BOHR)
           CHARGE         X                   Y                   Z
 N           7.0    -0.0588547411       -0.0706255192       -0.3200835910
 H           1.0     0.0349892159        1.9610890459        0.6191355951
 H           1.0    -0.8315482490       -1.8071485181        0.1007292191
 H           1.0     1.6143614096        0.8274249784        0.7340616734

          INTERNUCLEAR DISTANCES (ANGS.)
          ------------------------------

                1 N          2 H          3 H          4 H     

   1 N       0.0000000    1.1854992 *  1.0301507 *  1.1493468 *
   2 H       1.1854992 *  0.0000000    2.0644185 *  1.0305812 *
   3 H       1.0301507 *  2.0644185 *  0.0000000    1.9316464 *
   4 H       1.1493468 *  1.0305812 *  1.9316464 *  0.0000000  

  * ... LESS THAN  3.000


     ATOMIC BASIS SET
     ----------------
 THE CONTRACTED PRIMITIVE FUNCTIONS HAVE BEEN UNNORMALIZED
 THE CONTRACTED BASIS FUNCTIONS ARE NOW NORMALIZED TO UNITY

  SHELL TYPE  PRIMITIVE        EXPONENT          CONTRACTION COEFFICIENT(S)

 N         

      1   S       1          9046.0000000    0.000699617413
      1   S       2          1357.0000000    0.005386054630
      1   S       3           309.3000000    0.027391021189
      1   S       4            87.7300000    0.103150591982
      1   S       5            28.5600000    0.278570663317
      1   S       6            10.2100000    0.448294849454
      1   S       7             3.8380000    0.278085928395
      1   S       8             0.7466000    0.015431561233

      2   S       9          9046.0000000   -0.000304990096
      2   S      10          1357.0000000   -0.002408026379
      2   S      11           309.3000000   -0.011944448725
      2   S      12            87.7300000   -0.048925992909
      2   S      13            28.5600000   -0.134472724725
      2   S      14            10.2100000   -0.315112577700
      2   S      15             3.8380000   -0.242857832550
      2   S      16             0.7466000    1.094382206854

      3   S      17             0.2248000    1.000000000000

      4   P      18            13.5500000    0.058905676772
      4   P      19             2.9170000    0.320461106714
      4   P      20             0.7973000    0.753042061792

      5   P      21             0.2185000    1.000000000000

      6   D      22             0.8170000    1.000000000000

 H         

      7   S      23            13.0100000    0.033498726390
      7   S      24             1.9620000    0.234800801174
      7   S      25             0.4446000    0.813682957883

      8   S      26             0.1220000    1.000000000000

      9   P      27             0.7270000    1.000000000000

 H         

     10   S      28            13.0100000    0.033498726390
     10   S      29             1.9620000    0.234800801174
     10   S      30             0.4446000    0.813682957883

     11   S      31             0.1220000    1.000000000000

     12   P      32             0.7270000    1.000000000000

 H         

     13   S      33            13.0100000    0.033498726390
     13   S      34             1.9620000    0.234800801174
     13   S      35             0.4446000    0.813682957883

     14   S      36             0.1220000    1.000000000000

     15   P      37             0.7270000    1.000000000000

 TOTAL NUMBER OF BASIS SET SHELLS             =   15
 NUMBER OF CARTESIAN GAUSSIAN BASIS FUNCTIONS =   30
 NOTE: THIS RUN WILL RESTRICT THE MO VARIATION SPACE TO SPHERICAL HARMONICS.
 THE NUMBER OF ORBITALS KEPT IN THE VARIATIONAL SPACE WILL BE PRINTED LATER.
 NUMBER OF ELECTRONS                          =    9
 CHARGE OF MOLECULE                           =    1
 SPIN MULTIPLICITY                            =    2
 NUMBER OF OCCUPIED ORBITALS (ALPHA)          =    5
 NUMBER OF OCCUPIED ORBITALS (BETA )          =    4
 TOTAL NUMBER OF ATOMS                        =    4
 THE NUCLEAR REPULSION ENERGY IS       10.9871172553

     $CONTRL OPTIONS
     ---------------
 SCFTYP=MCSCF        RUNTYP=ENERGY       EXETYP=RUN     
 MPLEVL=       2     CITYP =NONE         CCTYP =NONE         VBTYP =NONE    
 DFTTYP=NONE         TDDFT =NONE    
 MULT  =       2     ICHARG=       1     NZVAR =       0     COORD =UNIQUE  
 PP    =NONE         RELWFN=NONE         LOCAL =NONE         NUMGRD=       F
 ISPHER=       1     NOSYM =       1     MAXIT =     200     UNITS =ANGS    
 PLTORB=       F     MOLPLT=       F     AIMPAC=       F     FRIEND=        
 NPRINT=       7     IREST =       0     GEOM  =INPUT   
 NORMF =       0     NORMP =       0     ITOL  =      20     ICUT  =       9
 INTTYP=RYSQUAD      GRDTYP=BEST         QMTTOL= 1.0E-05

     $SYSTEM OPTIONS
     ---------------
  REPLICATED MEMORY=   100000000 WORDS (ON EVERY NODE).
 DISTRIBUTED MEMDDI=        1000 MILLION WORDS IN AGGREGATE,
 MEMDDI DISTRIBUTED OVER   1 PROCESSORS IS  1000000000 WORDS/PROCESSOR.
 TOTAL MEMORY REQUESTED ON EACH PROCESSOR=  1100000000 WORDS.
 TIMLIM=      525600.00 MINUTES, OR     365.0 DAYS.
 PARALL= T  BALTYP=  DLB     KDIAG=    3  COREFL= F
 MXSEQ2=     300 MXSEQ3=     150  mem10=         0

          ----------------
          PROPERTIES INPUT
          ----------------

     MOMENTS            FIELD           POTENTIAL          DENSITY
 IEMOM =       1   IEFLD =       0   IEPOT =       0   IEDEN =       0
 WHERE =COMASS     WHERE =NUCLEI     WHERE =NUCLEI     WHERE =NUCLEI  
 OUTPUT=BOTH       OUTPUT=BOTH       OUTPUT=BOTH       OUTPUT=BOTH    
 IEMINT=       0   IEFINT=       0                     IEDINT=       0
                                                       MORB  =       0

     -------------------------------
     INTEGRAL TRANSFORMATION OPTIONS
     -------------------------------
     NWORD  =            0
     CUTOFF = 1.0E-09     MPTRAN =       0
     DIRTRF =       T     AOINTS =DUP     

          ----------------------
          MCSCF INPUT PARAMETERS
          ----------------------
 CONVERGER SELECTION: FOCAS = F  SOSCF = F  FULLNR = T  QUD = F  JACOBI = F
 SECULAR EQUATION METHOD CISTEP = GMCCI   
 --- GENERAL INPUT OPTIONS:
 MAXIT =     100  MICIT =       1  ACURCY= 1.000E-06
 DAMP  =   0.000  CANONC=       T  ENGTOL= 1.000E-10
 EKT   =       F  NPUNCH=       2  NWORD =         0
 REGENERATE CI AFTER CONVERGENCE = NONE    
 DIABATIZATION AFTER CONVERGENCE =        F
 --- INPUT FOR FULLNR CONVERGER:
 METHOD=DM2       FORS  =       F  DROPC =       T
 LINSER=       F  FCORE =       F  NORB  =      30

          ----------------------
          INTEGRAL INPUT OPTIONS
          ----------------------
 NOPK  =       1 NORDER=       0 SCHWRZ=       T

 ------------------------------------------
 MULTIREFERENCE PERTURBATION THEORY CONTROL
 ------------------------------------------
 MRPT=GMCPT    READ CONVERGED MCSCF VECTORS= F


     ------------------------------------------
     THE POINT GROUP IS C1 , NAXIS= 1, ORDER= 1
     ------------------------------------------

 -- VARIATIONAL SPACE WILL BE RESTRICTED TO PURE SPHERICAL HARMONICS ONLY --
 AFTER EXCLUDING CONTAMINANT COMBINATIONS FROM THE CARTESIAN GAUSSIAN BASIS
 SET, THE NUMBER OF SPHERICAL HARMONICS KEPT IN THE VARIATION SPACE IS   29

     DIMENSIONS OF THE SYMMETRY SUBSPACES ARE
 A   =   29

 ..... DONE SETTING UP THE RUN .....
 CPU     0: STEP CPU TIME=     0.03 TOTAL CPU TIME=          0.0 (      0.0 MIN)
 TOTAL WALL CLOCK TIME=          0.0 SECONDS, CPU UTILIZATION IS    60.00%

          ********************
          1 ELECTRON INTEGRALS
          ********************
 TIME TO DO   DIPOLE INTEGRALS=      0.01
 ...... END OF ONE-ELECTRON INTEGRALS ......
 CPU     0: STEP CPU TIME=     0.01 TOTAL CPU TIME=          0.0 (      0.0 MIN)
 TOTAL WALL CLOCK TIME=          0.0 SECONDS, CPU UTILIZATION IS    80.00%

          -------------
          GUESS OPTIONS
          -------------
          GUESS =MOREAD            NORB  =      29          NORDER=       0
          MIX   =       F          PRTMO =       F          PUNMO =       F
          TOLZ  = 1.0E-08          TOLE  = 1.0E-05
          SYMDEN=       F          PURIFY=       T

 INITIAL GUESS ORBITALS GENERATED BY MOREAD   ROUTINE.

 STATISTICS FOR GENERATION OF SYMMETRY ORBITAL -Q- MATRIX
 NUMBER OF CARTESIAN ATOMIC ORBITALS=         30
 NUMBER OF SPHERICAL CONTAMINANTS DROPPED=     1
 NUMBER OF LINEARLY DEPENDENT MOS DROPPED=     0
 TOTAL NUMBER OF MOS IN VARIATION SPACE=      29
 ORBITAL PURIFICATION WILL OCCUR

 SYMMETRIES FOR INITIAL GUESS ORBITALS FOLLOW.   BOTH SET(S).
     5 ORBITALS ARE OCCUPIED (    1 CORE ORBITALS).
     1=A        2=A        3=A        4=A        5=A        6=A        7=A   
     8=A        9=A       10=A       11=A       12=A       13=A       14=A   
    15=A       16=A       17=A       18=A       19=A       20=A       21=A   
    22=A       23=A       24=A       25=A       26=A       27=A       28=A   
    29=A   
 ...... END OF INITIAL ORBITAL SELECTION ......
 CPU     0: STEP CPU TIME=     0.01 TOTAL CPU TIME=          0.0 (      0.0 MIN)
 TOTAL WALL CLOCK TIME=          0.0 SECONDS, CPU UTILIZATION IS   100.00%

                    ----------------------
                    AO INTEGRAL TECHNOLOGY
                    ----------------------
     S,P,L SHELL ROTATED AXIS INTEGRALS, REPROGRAMMED BY
        KAZUYA ISHIMURA (IMS) AND JOSE SIERRA (SYNSTAR).
     S,P,D,L SHELL ROTATED AXIS INTEGRALS PROGRAMMED BY
        KAZUYA ISHIMURA (INSTITUTE FOR MOLECULAR SCIENCE).
     S,P,D,F,G SHELL TO TOTAL QUARTET ANGULAR MOMENTUM SUM 5,
        ERIC PROGRAM BY GRAHAM FLETCHER (ELORET AND NASA ADVANCED
        SUPERCOMPUTING DIVISION, AMES RESEARCH CENTER).
     S,P,D,F,G,L SHELL GENERAL RYS QUADRATURE PROGRAMMED BY
        MICHEL DUPUIS (PACIFIC NORTHWEST NATIONAL LABORATORY).

          --------------------
          2 ELECTRON INTEGRALS
          --------------------

 DIRECT SCF METHOD SKIPS INTEGRAL STORAGE ON DISK.
 DIRECT TRANSFORMATION SKIPS AO INTEGRAL STORAGE ON DISK.
  ...... END OF TWO-ELECTRON INTEGRALS .....
 STEP CPU TIME =     0.02 TOTAL CPU TIME =          0.1 (      0.0 MIN)
 TOTAL WALL CLOCK TIME=          0.1 SECONDS, CPU UTILIZATION IS    87.50%
 DDI: Creating Array [0] - 900 x 36 = 32400 words.
 DDI: Creating Array [1] - 21 x 288 = 6048 words.
 DDI: Creating Array [2] - 36 x 36 = 1296 words.
 DDI: Creating Array [3] - 465 x 36 = 16740 words.

          -----------------
          MCSCF CALCULATION
          -----------------

 ----- NUCLEAR ENERGY ----- =        10.9871172553

     -------------------------------------------------
     GMC-PT/GMC-QDPT or general MCSCF input parameters
     -------------------------------------------------
 # of frozen core orbs. =         0 ->         0
 # of doubly occ. orbs. =         1
 # of active      orbs. =         7
 # of virtual     orbs. =        21
 # of active electrons  =         7
 # of states in CI      =         3
 Highest state in CI    =         3
 kstate =  1 1 1
 avecoe =  0.333 0.333 0.333
 State symmetry           = A           
 Assigned symmetry number = 1

 <<<Act. MO sym.: 1111111

 <<<Division of 1-ext.:  0
 <<<Division of 2-ext.:  0

 *** Reference space

 Reference type: ORMAS (= Occupation restricted multiple active space)
 # of orbitals          =  7
 # of minimum electrons =  7
 # of maximum electrons =  7
 State symmetry    =    1 (input)
 2*Sz              =    1 (input)
 Spin multiplicity =    2 (input)
 Dimension of reference space =      1225  (from      3432 walks)

 Dimension of reference space =      1225  (from      1225 walks)

 <<<Ionized spaces for Ref-CI:
      0:         1225 /   -1-0:         1960 /  0-1-0:         2891

 EVALUATING EXCHANGE INTEGRALS FOR DIRECT INTEGRAL TRANSFORMATION
 SCHWARZ INEQUALITY OVERHEAD:       465 INTEGRALS, T=        0.00

     --------------------------------------------
     PARTIAL TWO ELECTRON INTEGRAL TRANSFORMATION
     --------------------------------------------

 NUMBER OF CORE MOLECULAR ORBITALS     =    1
 NUMBER OF OCCUPIED MOLECULAR ORBITALS =    8
 TOTAL NUMBER OF MOLECULAR ORBITALS    =   29
 TOTAL NUMBER OF ATOMIC ORBITALS       =   30
 THRESHOLD FOR KEEPING TRANSFORMED 2E- INTEGRALS = 1.000E-09

 -------------------------------     ------------------------------
 DISTRIBUTED DATA TRANSFORMATION     PROGRAM WRITTEN BY G. FLETCHER
 -------------------------------     ------------------------------

 THE DISTRIBUTED MEMORY REQUIRED FOR THIS STEP IS MEMDDI=         1 MWORDS
 CREATING DISTRIBUTED STORAGE FOR [VIR OCC|VIR OCC] INTEGRALS
 CREATING DISTRIBUTED STORAGE FOR [VIR OCC|OCC OCC] INTEGRALS
 CREATING DISTRIBUTED STORAGE FOR [OCC OCC|OCC OCC] INTEGRALS
 CREATING DISTRIBUTED STORAGE FOR [VIR VIR|OCC OCC] INTEGRALS
 FOR    1 PROCESSORS, THE REPLICATED MEMORY NEEDED IS       73700 WORDS.
 SCHWARZ INEQUALITY OVERHEAD:       465 INTEGRALS, T=        0.00

      DIRECT 4-INDEX TRANSFORMATION 
      SCHWARZ INEQUALITY TEST SKIPPED          0 INTEGRAL BLOCKS
 ----- FROZEN CORE ENERGY =       -47.5728783227
 ... END OF INTEGRAL TRANSFORMATION ...
 CPU     0: STEP CPU TIME=     0.22 TOTAL CPU TIME=          0.3 (      0.0 MIN)
 TOTAL WALL CLOCK TIME=          0.3 SECONDS, CPU UTILIZATION IS    96.67%

     --------------------------------     -----------------------------
     MCHF NEWTON-RAPHSON OPTIMIZATION     CODE WRITTEN BY MICHEL DUPUIS
     --------------------------------     -----------------------------
     PARALLEL VERSION WRITTEN BY G. FLETCHER (ELORET)
     NASA ADVANCED SUPERCOMPUTING DIVISION, AMES RESEARCH CENTER

 NUMBER OF INDEPENDENT ORBITAL ROTATION PARAMETERS =   175
 ..... DONE SOLVING NEWTON-RAPHSON EQUATIONS .....
 CPU     0: STEP CPU TIME=     0.83 TOTAL CPU TIME=          1.1 (      0.0 MIN)
 TOTAL WALL CLOCK TIME=          1.1 SECONDS, CPU UTILIZATION IS    98.25%
 ..... DONE WITH NTN-RPH ORBITAL ROTATIONS ..... 
 CPU     0: STEP CPU TIME=     0.00 TOTAL CPU TIME=          1.1 (      0.0 MIN)
 TOTAL WALL CLOCK TIME=          1.1 SECONDS, CPU UTILIZATION IS    98.25%
 MAXIMUM MEMORY USED BY NTN-RPH CODE WAS     57645 WORDS.

 ITER     TOTAL ENERGY      DEL(E)  LAGRANGIAN ASYMMETRY   SQCDF  MICIT   DAMP
   1      -55.554297313 -0.554297313  0.119329    9    3 9.289E-02  1   0.0000
   2      -55.619616858 -0.065319544  0.020713   12    5 4.582E-01  1   0.0000
   3      -55.657032806 -0.037415948  0.014502   11    6 2.481E-01  1   0.0173
   4      -55.674821466 -0.017788660  0.005049   11    6 6.043E-02  1   0.0068
   5      -55.677697636 -0.002876170  0.000903   24    5 2.091E-03  1   0.0000
   6      -55.677798268 -0.000100633  0.000341   22    5 1.894E-04  1   0.0000
   7      -55.677809211 -0.000010942  0.000170   22    5 3.778E-05  1   0.0000
   8      -55.677811496 -0.000002285  0.000087   22    5 9.489E-06  1   0.0000
   9      -55.677812078 -0.000000582  0.000046   22    5 2.790E-06  1   0.0000
  10      -55.677812248 -0.000000170  0.000024   22    5 9.198E-07  1   0.0000
  11      -55.677812303 -0.000000055  0.000013   22    5 3.267E-07  1   0.0000
  12      -55.677812323 -0.000000019  0.000007   23    5 1.212E-07  1   0.0000
  13      -55.677812330 -0.000000007  0.000005   23    5 4.613E-08  1   0.0000
  14      -55.677812333 -0.000000003  0.000003   23    5 1.779E-08  1   0.0000
  15      -55.677812334 -0.000000001  0.000002   23    5 6.909E-09  1   0.0000
  16      -55.677812334 -0.000000000  0.000001   12    8 2.704E-09  1   0.0000
  17      -55.677812334 -0.000000000  0.000001   23    5 1.058E-09  1   0.0000

          --------------------
          LAGRANGIAN CONVERGED
          --------------------

 FINAL MCSCF ENERGY IS      -55.6778123341 AFTER  17 ITERATIONS

 -MCCI- BASED ON OPTIMIZED ORBITALS
 ----------------------------------

 PLEASE NOTE: IF THE ACTIVE ORBITALS ARE CANONICALIZED BELOW,
 THE FOLLOWING CI EXPANSION COEFFICIENTS AND THE DENSITY DO NOT
 CORRESPOND TO THE PRINTED ORBITALS.  THE PRINTED EXPANSIONS MATCH
 THE ORBITALS USED DURING THE LAST ITERATION.  IF YOU WISH TO SEE
 CI EXPANSIONS BASED ON THE CANONICAL (OR NATURAL) ORBITALS, YOU
 MUST RUN A CI CALCULATION WITH THAT ORBITAL CHOICE READ IN $VEC.

 Averaged energy =     -55.677812334

 State #    1  Energy =     -55.808115985  S =  0.500

      Det      Coef    Occupancy (Ignoring core)
      ---      ----    --------- --------- -----
        1    0.923342  11110001110000
        5   -0.071088  01111001110000
        8   -0.139611  10110101110000
       17    0.132567  11010011110000
       71   -0.196271  11110001011000
      211    0.053331  11110000110100
      386    0.101737  11110001010010
      393    0.064225  10110101010010
      701   -0.108650  11110001100001
      717    0.051222  11010011100001

 State #    2  Energy =     -55.739471824  S =  0.500

      Det      Coef    Occupancy (Ignoring core)
      ---      ----    --------- --------- -----
        1   -0.145573  11110001110000
       36   -0.544128  11110001101000
       43    0.068905  10110101101000
       52   -0.060752  11010011101000
       71   -0.769529  11110001011000
       74    0.053300  10111001011000
       75    0.061119  01111001011000
       78    0.094788  10110101011000
       87   -0.092507  11010011011000
      456   -0.060085  11110001001010
      806   -0.074777  11110001001001

 State #    3  Energy =     -55.485849194  S =  0.500

      Det      Coef    Occupancy (Ignoring core)
      ---      ----    --------- --------- -----
        1   -0.130688  11110001110000
       36    0.785527  11110001101000
       43   -0.069435  10110101101000
       71   -0.527380  11110001011000
       74    0.051893  10111001011000
       87   -0.050109  11010011011000
      281    0.069527  11110000101100
      456    0.086946  11110001001010
      463    0.058641  10110101001010
      806   -0.056148  11110001001001

 DENSITY MATRIX OVER ACTIVE MO-S

             1           2           3           4           5

    1    1.9715885
    2    0.0132585   1.6218081
    3    0.0031156   0.0080414   1.6295930
    4    0.0017864   0.0012110  -0.0018761   1.6484949
    5    0.1092501  -0.0573331  -0.0295095  -0.0447670   0.0432502
    6   -0.0014386  -0.1675673   0.0032625   0.0445003   0.0039204
    7   -0.0115337   0.0089856  -0.1558223   0.0237659  -0.0029831

             6           7

    6    0.0463244
    7   -0.0063358   0.0389409

 FORMING THE "STANDARD FOCK OPERATOR" IN DIRECT AO INTEGRAL MODE...
 ONLY THE    1 CORE AND   21 VIRTUAL ORBITALS WILL BE CANONICALIZED

          ----------------------
          MCSCF NATURAL ORBITALS
          ----------------------

                      1          2          3          4          5
                  -15.9861     1.9781     1.6548     1.6477     1.6353
                     A          A          A          A          A   
    1  N  1  S    1.001066   0.008638  -0.007550  -0.005996  -0.000956
    2  N  1  S   -0.001897   0.433103  -0.081585  -0.182104  -0.011991
    3  N  1  S   -0.006279   0.340397  -0.161956  -0.255982  -0.019987
    4  N  1  X   -0.000061   0.024892  -0.194753   0.151649   0.486420
    5  N  1  Y   -0.000260   0.012905  -0.319603   0.215037  -0.287785
    6  N  1  Z    0.001202   0.080530   0.426351   0.386627  -0.026868
    7  N  1  X   -0.000088   0.005859  -0.091807   0.037471   0.297303
    8  N  1  Y   -0.000122   0.006874  -0.127946   0.036789  -0.166660
    9  N  1  Z   -0.000642   0.019844   0.298417   0.239480  -0.026044
   10  N  1 XX   -0.000115  -0.002655  -0.010984  -0.005751   0.010006
   11  N  1 YY    0.000351   0.003320  -0.004781  -0.010519  -0.008733
   12  N  1 ZZ   -0.000236  -0.000665   0.015765   0.016270  -0.001274
   13  N  1 XY    0.000381   0.004219   0.001774   0.000291   0.003089
   14  N  1 XZ    0.000030   0.001933  -0.005931   0.009025   0.020762
   15  N  1 YZ   -0.000018   0.002627  -0.011933   0.010673  -0.012391
   16  H  2  S   -0.001300   0.174039  -0.072567   0.247988  -0.264526
   17  H  2  S    0.000268   0.001295   0.007716   0.038388  -0.124229
   18  H  2  X   -0.000030   0.001480  -0.005156   0.013515   0.015118
   19  H  2  Y    0.000672  -0.029701   0.005335  -0.027250   0.024850
   20  H  2  Z    0.000374  -0.008774   0.023431   0.005803   0.010920
   21  H  3  S   -0.001985   0.169557   0.330693  -0.186163   0.026726
   22  H  3  S    0.000707  -0.002073   0.047327  -0.010024  -0.001936
   23  H  3  X   -0.000435   0.014320   0.012879  -0.007075   0.020363
   24  H  3  Y   -0.000973   0.029238   0.033696  -0.021075  -0.004371
   25  H  3  Z    0.000310  -0.002225   0.007546   0.020477  -0.001736
   26  H  4  S   -0.001446   0.193214  -0.061574   0.288741   0.241339
   27  H  4  S    0.000274   0.006114   0.009733   0.054331   0.119954
   28  H  4  X    0.000686  -0.030057   0.001112  -0.032273  -0.010073
   29  H  4  Y    0.000286  -0.012275  -0.004921   0.001770  -0.021660
   30  H  4  Z    0.000439  -0.013087   0.023682   0.001475  -0.016137

                      6          7          8
                    0.0350     0.0306     0.0184
                     A          A          A   
    1  N  1  S   -0.128012  -0.041393  -0.157371
    2  N  1  S   -0.493533  -0.177489  -0.458993
    3  N  1  S   -0.200018  -0.136487   0.044258
    4  N  1  X    0.137762  -0.708545   0.315543
    5  N  1  Y   -0.400666   0.142807   0.790407
    6  N  1  Z   -0.512126  -0.277413  -0.158937
    7  N  1  X   -0.099673   0.034487   0.056181
    8  N  1  Y   -0.059994  -0.100292   0.107214
    9  N  1  Z    0.002222  -0.016898   0.097318
   10  N  1 XX   -0.043099   0.031840  -0.002744
   11  N  1 YY    0.044424  -0.033911   0.031027
   12  N  1 ZZ   -0.001325   0.002070  -0.028283
   13  N  1 XY    0.030410   0.032311   0.007066
   14  N  1 XZ    0.014661   0.024125  -0.006351
   15  N  1 YZ    0.030756   0.008336  -0.034344
   16  H  2  S    0.689230  -0.307709  -0.225202
   17  H  2  S    0.184339  -0.202720  -0.070508
   18  H  2  X    0.013810   0.043142  -0.020501
   19  H  2  Y   -0.057402   0.025345   0.008260
   20  H  2  Z    0.015046   0.025591  -0.006749
   21  H  3  S    0.293569   0.053370   0.848272
   22  H  3  S    0.023270  -0.010310   0.154921
   23  H  3  X    0.010202   0.012652   0.034295
   24  H  3  Y    0.034436   0.008523   0.075305
   25  H  3  Z   -0.001502   0.000517   0.027799
   26  H  4  S    0.152146   0.788349  -0.098701
   27  H  4  S   -0.058707   0.278164  -0.010029
   28  H  4  X   -0.032357  -0.045934   0.003332
   29  H  4  Y    0.034186  -0.024398  -0.030418
   30  H  4  Z    0.025629  -0.012351  -0.006230

          ------------------------
          MCSCF OPTIMIZED ORBITALS
          ------------------------

                      1          2          3          4          5
                  -15.9861     0.0000     0.0000     0.0000     0.0000
                     A          A          A          A          A   
    1  N  1  S    1.001066  -0.000468   0.013310   0.013284  -0.008240
    2  N  1  S   -0.001897   0.399592  -0.006051  -0.007777  -0.177745
    3  N  1  S   -0.006279   0.327738  -0.060244  -0.033579  -0.284856
    4  N  1  X   -0.000061   0.006503   0.449786  -0.095961  -0.032247
    5  N  1  Y   -0.000260  -0.001493  -0.006515   0.392581  -0.044363
    6  N  1  Z    0.001202   0.049663   0.006945  -0.001662   0.592276
    7  N  1  X   -0.000088  -0.005538   0.291174  -0.120132  -0.049884
    8  N  1  Y   -0.000122   0.002710  -0.070740   0.189598  -0.051962
    9  N  1  Z   -0.000642   0.023308  -0.036193  -0.030249   0.383413
   10  N  1 XX   -0.000115  -0.004583   0.014485  -0.005509  -0.012163
   11  N  1 YY    0.000351   0.005452  -0.016552   0.002690  -0.009941
   12  N  1 ZZ   -0.000236  -0.000869   0.002067   0.002819   0.022104
   13  N  1 XY    0.000381   0.006497   0.002180  -0.004095  -0.000190
   14  N  1 XZ    0.000030   0.002524   0.024142  -0.004866   0.000001
   15  N  1 YZ   -0.000018   0.003907   0.001113   0.023331  -0.002155
   16  H  2  S   -0.001300   0.201074  -0.104954   0.390037   0.119935
   17  H  2  S    0.000268   0.007907  -0.103377   0.113278   0.037557
   18  H  2  X   -0.000030   0.002327   0.023806   0.000803   0.003164
   19  H  2  Y    0.000672  -0.032000   0.008292  -0.036629  -0.015371
   20  H  2  Z    0.000374  -0.007345   0.002869  -0.017224   0.019101
   21  H  3  S   -0.001985   0.202170  -0.257698  -0.366570   0.111544
   22  H  3  S    0.000707   0.001501  -0.036625  -0.042488   0.029491
   23  H  3  X   -0.000435   0.015398   0.006091  -0.026692   0.003353
   24  H  3  Y   -0.000973   0.032881  -0.031781  -0.033144   0.009765
   25  H  3  Z    0.000310  -0.002129   0.003556   0.005503   0.020312
   26  H  4  S   -0.001446   0.206438   0.408574   0.016585   0.118999
   27  H  4  S    0.000274   0.005922   0.139494  -0.064374   0.033100
   28  H  4  X    0.000686  -0.031942  -0.025962  -0.010903  -0.019077
   29  H  4  Y    0.000286  -0.010994  -0.016390   0.021534  -0.002018
   30  H  4  Z    0.000439  -0.011325  -0.023885  -0.000966   0.018268

                      6          7          8          9         10
                    0.0000     0.0000     0.0000     0.1041     0.1943
                     A          A          A          A          A   
    1  N  1  S    0.169838  -0.075538  -0.089787  -0.078681   0.034268
    2  N  1  S    0.653551  -0.200390  -0.233758  -0.105499   0.037827
    3  N  1  S    0.248808   0.093417   0.068388   0.970197  -0.496666
    4  N  1  X    0.065682   0.831675  -0.100685  -0.027155  -0.044310
    5  N  1  Y    0.085772   0.208609   0.911064  -0.026583  -0.137641
    6  N  1  Z    0.590075   0.016422  -0.034457  -0.096145   0.034807
    7  N  1  X    0.052301   0.011246   0.089112   0.141788   0.311746
    8  N  1  Y    0.065847   0.119581   0.091678   0.188013   0.697861
    9  N  1  Z   -0.027965   0.051496   0.063475   0.258184  -0.021984
   10  N  1 XX    0.025711  -0.035502   0.028448  -0.019334   0.022317
   11  N  1 YY   -0.032606   0.052811  -0.006710   0.053580  -0.065735
   12  N  1 ZZ    0.006896  -0.017309  -0.021738  -0.034246   0.043418
   13  N  1 XY   -0.041195  -0.016007   0.005677   0.067438  -0.051137
   14  N  1 XZ   -0.021562  -0.017498  -0.002186   0.036261   0.036834
   15  N  1 YZ   -0.021742  -0.018049  -0.035323   0.044694   0.077505
   16  H  2  S   -0.422433   0.273719  -0.562261   0.423386   0.165687
   17  H  2  S   -0.062463   0.159345  -0.206716  -0.867682  -0.571704
   18  H  2  X   -0.024911  -0.041019  -0.005134   0.061092   0.011484
   19  H  2  Y    0.037396  -0.027981   0.037737   0.044562   0.019166
   20  H  2  Z   -0.022474  -0.021562  -0.003471   0.035835   0.062237
   21  H  3  S   -0.476237   0.438988   0.555398   0.282641  -0.549313
   22  H  3  S   -0.055277   0.090797   0.108067  -0.450913   1.943544
   23  H  3  X   -0.021912   0.010496   0.026226  -0.031237   0.053797
   24  H  3  Y   -0.049995   0.036771   0.047395  -0.049429   0.126518
   25  H  3  Z   -0.007013   0.013685   0.023728  -0.026114  -0.065588
   26  H  4  S   -0.429867  -0.630899   0.174122   0.403573   0.159326
   27  H  4  S   -0.061001  -0.234572   0.122135  -0.895900  -0.550143
   28  H  4  X    0.045880   0.030399  -0.003079   0.022514   0.006246
   29  H  4  Y   -0.012912   0.010030  -0.047029   0.087386   0.009344
   30  H  4  Z   -0.016343   0.009624  -0.021208   0.039813   0.053752

                     11         12         13         14         15
                    0.2721     0.5250     0.5731     0.6540     0.8799
                     A          A          A          A          A   
    1  N  1  S    0.004947  -0.113171  -0.017497  -0.034115  -0.628290
    2  N  1  S    0.012628  -0.139246   0.009628  -0.028643  -1.402055
    3  N  1  S   -0.034510   0.898328   0.274521   0.167390   2.406248
    4  N  1  X    0.029817   0.281259  -0.613391  -0.073734  -0.070270
    5  N  1  Y   -0.037031   0.073414   0.275752  -0.427490  -0.123695
    6  N  1  Z    0.002054  -0.671572  -0.215523  -0.282763   0.276204
    7  N  1  X   -0.378910  -0.529447   1.304060   0.619840   0.112367
    8  N  1  Y    0.290030  -0.348075  -0.447053   1.727112   0.149396
    9  N  1  Z   -0.031185   0.941108   0.423749   0.644186  -0.110173
   10  N  1 XX   -0.065480  -0.007864  -0.024975   0.031858  -0.003292
   11  N  1 YY    0.068867  -0.016564   0.017681  -0.007939  -0.007493
   12  N  1 ZZ   -0.003387   0.024428   0.007294  -0.023918   0.010785
   13  N  1 XY   -0.040272  -0.015588  -0.035851   0.015745  -0.058399
   14  N  1 XZ   -0.048258   0.007790  -0.007297  -0.020584   0.009877
   15  N  1 YZ    0.022963   0.011063   0.007963  -0.067483  -0.023717
   16  H  2  S    0.607132  -0.207121   0.207785  -0.549851  -0.046019
   17  H  2  S   -2.194799  -0.186307   0.694670  -0.450463  -0.366750
   18  H  2  X   -0.092349  -0.074870  -0.078752   0.037113  -0.213950
   19  H  2  Y    0.079010  -0.006417  -0.005002   0.242336   0.110253
   20  H  2  Z    0.002601   0.143468  -0.007419  -0.096378   0.106288
   21  H  3  S    0.040424  -0.574945  -0.115332   0.486464  -0.175004
   22  H  3  S   -0.061696  -0.373259   0.107652   0.673762  -0.539003
   23  H  3  X    0.038723  -0.034635   0.087949   0.043957   0.012370
   24  H  3  Y   -0.008083  -0.089199  -0.034244   0.174501  -0.120266
   25  H  3  Z    0.001654   0.020858   0.022212   0.154497   0.160405
   26  H  4  S   -0.625755  -0.080947  -0.509572  -0.351669  -0.035355
   27  H  4  S    2.238213   0.120974  -0.898576  -0.229051  -0.349601
   28  H  4  X   -0.110245  -0.002267   0.064756   0.216389   0.167648
   29  H  4  Y    0.049984  -0.081704   0.063952   0.075775  -0.144955
   30  H  4  Z   -0.019804   0.115694   0.088844  -0.076573   0.160076

                     16         17         18         19         20
                    1.0814     1.1206     1.1985     1.3262     1.4578
                     A          A          A          A          A   
    1  N  1  S   -0.037309  -0.200908   0.152705  -0.118318  -0.412667
    2  N  1  S   -0.054628  -0.411927   0.313420  -0.252967  -0.895512
    3  N  1  S    0.176305   0.916889  -0.693158   0.431837   1.229009
    4  N  1  X   -0.009821  -0.026444  -0.127756   0.062799  -0.100864
    5  N  1  Y   -0.077929   0.166107  -0.177394  -0.077453  -0.166418
    6  N  1  Z    0.065224   0.010912   0.010154   0.003878  -0.107801
    7  N  1  X    0.286682   0.084146   0.713734  -0.102677   0.396342
    8  N  1  Y    0.656972  -0.755870   0.913321   0.147086   0.380690
    9  N  1  Z   -0.263990   0.100207  -0.100493   0.185355   0.658893
   10  N  1 XX   -0.214235   0.121537   0.058659   0.043594  -0.062705
   11  N  1 YY   -0.063789  -0.143952  -0.098181   0.011763   0.069930
   12  N  1 ZZ    0.278024   0.022415   0.039523  -0.055356  -0.007225
   13  N  1 XY    0.083134   0.148147   0.072009  -0.024993   0.110883
   14  N  1 XZ   -0.002139  -0.192856  -0.126839  -0.236135  -0.018494
   15  N  1 YZ   -0.055990   0.041727   0.119724   0.159410   0.049123
   16  H  2  S   -0.403932   0.195721  -0.105397  -0.339861  -0.570088
   17  H  2  S   -0.051134   0.078423  -0.040216   0.050707   0.078283
   18  H  2  X    0.264038   0.251821  -0.374099  -0.158181   0.275827
   19  H  2  Y   -0.135291   0.134845  -0.189168  -0.415945  -0.146991
   20  H  2  Z    0.381106   0.153333   0.484352   0.317057  -0.386563
   21  H  3  S    0.298794  -0.453176   0.660406  -0.050548  -0.134733
   22  H  3  S    0.152021  -0.324178   0.378402  -0.039498  -0.055136
   23  H  3  X    0.111011  -0.519327  -0.436144   0.352636  -0.160131
   24  H  3  Y    0.023533   0.252095   0.084131  -0.175838   0.043211
   25  H  3  Z    0.272454   0.271013  -0.314675  -0.118550  -0.673100
   26  H  4  S   -0.283521  -0.236088  -0.176520  -0.005121  -0.609480
   27  H  4  S   -0.024881  -0.106072  -0.074695  -0.082198  -0.110336
   28  H  4  X   -0.286320  -0.001941   0.000029   0.262566  -0.269929
   29  H  4  Y    0.206583   0.207467  -0.274131   0.542170   0.054151
   30  H  4  Z    0.465255  -0.346917   0.088586  -0.411326   0.075281

                     21         22         23         24         25
                    1.6018     1.7168     1.8798     1.9306     2.1375
                     A          A          A          A          A   
    1  N  1  S   -0.084203  -0.019002  -0.110184   0.048800  -0.032454
    2  N  1  S   -0.167888   0.081502  -0.228493   0.137645  -0.039889
    3  N  1  S    0.350464   1.093777  -0.163827   0.395039   0.432643
    4  N  1  X   -0.175724   0.184081   0.231475  -0.057015   0.033449
    5  N  1  Y   -0.021626   0.203742   0.524483  -0.119964  -0.058776
    6  N  1  Z   -0.012063   0.226879   0.016734   0.041994   0.041673
    7  N  1  X   -0.188389   0.226694   0.037460  -0.195206   0.406354
    8  N  1  Y    0.559293   0.400685   0.146171  -0.130881  -0.193264
    9  N  1  Z    0.187668   0.445214   0.024705   0.299138   0.221655
   10  N  1 XX    0.159431   0.138579  -0.283105  -0.544942  -0.356190
   11  N  1 YY   -0.083108  -0.033157   0.076954  -0.261926   0.237238
   12  N  1 ZZ   -0.076324  -0.105422   0.206151   0.806868   0.118951
   13  N  1 XY    0.020472  -0.162677   0.344131   0.323153  -0.324352
   14  N  1 XZ    0.252475  -0.187568   0.022946  -0.013961   0.717497
   15  N  1 YZ   -0.144334  -0.051463  -0.178985   0.169364  -0.380765
   16  H  2  S   -0.110321  -0.218089   0.050831  -0.027896   0.051170
   17  H  2  S   -0.463836  -0.334455  -0.143282  -0.113070   0.243148
   18  H  2  X    0.309406   0.286057  -0.164010  -0.079943  -0.006566
   19  H  2  Y    0.352168   0.630829   0.208531   0.287006  -0.319333
   20  H  2  Z    0.563711   0.188499   0.257223  -0.241029   0.161062
   21  H  3  S    0.121710  -0.006596   0.026290  -0.160401  -0.124206
   22  H  3  S   -0.003198  -0.020702   0.409449  -0.265769  -0.075996
   23  H  3  X    0.337809  -0.166422   0.426885  -0.081626  -0.632660
   24  H  3  Y   -0.312743  -0.292236   0.807856  -0.558202   0.072447
   25  H  3  Z   -0.235063  -0.503366  -0.398752  -0.093872  -0.116052
   26  H  4  S   -0.318873  -0.230953   0.082623   0.045687  -0.313984
   27  H  4  S    0.375125  -0.361394  -0.134206   0.065331  -0.336038
   28  H  4  X   -0.258882   0.434979   0.250470   0.195377   0.420071
   29  H  4  Y   -0.277062   0.406156  -0.008639   0.023276   0.380465
   30  H  4  Z   -0.498007   0.487269   0.015924  -0.297481  -0.195030

                     26         27         28         29
                    2.2145     2.5956     2.7081     2.9094
                     A          A          A          A   
    1  N  1  S    0.037250  -0.143308  -0.073598  -0.048452
    2  N  1  S    0.063326  -0.254003  -0.042713   0.040242
    3  N  1  S   -0.211539   0.317941   1.294074   1.745120
    4  N  1  X    0.060147   0.147082   0.185758  -0.240366
    5  N  1  Y   -0.051352   0.405231  -0.076980  -0.280493
    6  N  1  Z   -0.002770   0.020232   0.180934   0.184267
    7  N  1  X   -0.218551   0.507078   0.505664  -0.332509
    8  N  1  Y    0.096868   1.262989   0.111369  -0.347067
    9  N  1  Z   -0.082646   0.211900   0.321054   0.242584
   10  N  1 XX   -0.247454  -0.158818   0.572632  -0.677781
   11  N  1 YY    0.205683   0.118370  -0.230617   1.341007
   12  N  1 ZZ    0.041771   0.040448  -0.342015  -0.663226
   13  N  1 XY   -0.118070  -0.373087   0.933274   0.564092
   14  N  1 XZ   -0.215877   0.441044   0.644261  -0.167025
   15  N  1 YZ    0.105630   1.132329   0.255382   0.080146
   16  H  2  S    0.579722  -0.838321   0.212410  -0.729260
   17  H  2  S    0.276203  -0.361300   0.140510  -0.211834
   18  H  2  X    1.091112   0.079755   0.153218  -0.122985
   19  H  2  Y   -0.543682   0.717321  -0.329786   0.711273
   20  H  2  Z    0.156267   0.247497  -0.045156   0.425347
   21  H  3  S    0.024683   0.898715  -0.358120  -1.358722
   22  H  3  S    0.046597   0.395471  -0.080021  -0.395126
   23  H  3  X    0.028806   0.158048   0.081237  -0.541341
   24  H  3  Y    0.022583   0.714843  -0.390681  -0.902785
   25  H  3  Z    0.044241   0.141254   0.236636   0.399781
   26  H  4  S   -0.445058  -0.334347  -1.199434   0.219789
   27  H  4  S   -0.238280  -0.090902  -0.473319   0.053935
   28  H  4  X    0.859209   0.081534   0.992468  -0.221808
   29  H  4  Y   -0.935000   0.156537   0.288996  -0.012068
   30  H  4  Z   -0.062633   0.039573   0.622974  -0.037011
 .....DONE WITH MCSCF ITERATIONS.....
 CPU     0: STEP CPU TIME=    11.71 TOTAL CPU TIME=         12.8 (      0.2 MIN)
 TOTAL WALL CLOCK TIME=         12.8 SECONDS, CPU UTILIZATION IS    99.84%

     ----------------------------------------------------------------
     PROPERTY VALUES FOR THE MCSCF SELF-CONSISTENT FIELD WAVEFUNCTION
     ----------------------------------------------------------------

          -----------------
          ENERGY COMPONENTS
          -----------------

         WAVEFUNCTION NORMALIZATION =       1.0000000000

                ONE ELECTRON ENERGY =     -93.4649489028
                TWO ELECTRON ENERGY =      26.8000193134
           NUCLEAR REPULSION ENERGY =      10.9871172553
                                      ------------------
                       TOTAL ENERGY =     -55.6778123341

 ELECTRON-ELECTRON POTENTIAL ENERGY =      26.8000193134
  NUCLEUS-ELECTRON POTENTIAL ENERGY =    -149.1304239176
   NUCLEUS-NUCLEUS POTENTIAL ENERGY =      10.9871172553
                                      ------------------
             TOTAL POTENTIAL ENERGY =    -111.3432873489
               TOTAL KINETIC ENERGY =      55.6654750148
                 VIRIAL RATIO (V/T) =       2.0002216332

          ---------------------------------------
          MULLIKEN AND LOWDIN POPULATION ANALYSES
          ---------------------------------------

     ATOMIC MULLIKEN POPULATION IN EACH MOLECULAR ORBITAL

                      1          2          3          4          5

                  2.000000   1.978150   1.654802   1.647707   1.635323

    1             2.000590   1.369244   1.273095   1.035545   1.243747
    2            -0.000117   0.195351   0.029309   0.206513   0.215273
    3            -0.000312   0.175308   0.328992   0.138249   0.011047
    4            -0.000161   0.238247   0.023406   0.267400   0.165257

                      6          7          8

                  0.034986   0.030595   0.018437

    1             0.017062   0.014034   0.009700
    2             0.014608   0.002130   0.000541
    3             0.002395   0.000015   0.008055
    4             0.000921   0.014416   0.000140
 WARNING! MCSCF POPULATIONS SHOWN ABOVE ARE FOR THE NATURAL ORBITALS.
 IGNORE THE ABOVE DATA FOR MCSCF FUNCTIONS WHICH ARE NOT OF -FORS- TYPE.
 THE FOLLOWING POPULATIONS ARE CORRECT FOR ANY MCSCF WAVEFUNCTION.

               ----- POPULATIONS IN EACH AO -----
                             MULLIKEN      LOWDIN
              1  N  1  S      2.00222     1.90393
              2  N  1  S      0.81709     0.58129
              3  N  1  S      0.71690     0.41621
              4  N  1  X      0.74779     0.68852
              5  N  1  Y      0.64003     0.56326
              6  N  1  Z      0.82700     0.78058
              7  N  1  X      0.41176     0.47859
              8  N  1  Y      0.26997     0.39719
              9  N  1  Z      0.51627     0.55485
             10  N  1 XX      0.00034     0.15718
             11  N  1 YY      0.00310     0.18696
             12  N  1 ZZ      0.00139     0.14387
             13  N  1 XY      0.00428     0.00622
             14  N  1 XZ      0.00487     0.00721
             15  N  1 YZ      0.00000     0.01020
             16  H  2  S      0.54817     0.41173
             17  H  2  S      0.06274     0.15389
             18  H  2  X      0.01117     0.04328
             19  H  2  Y      0.02879     0.04677
             20  H  2  Z      0.01273     0.02768
             21  H  3  S      0.58276     0.45125
             22  H  3  S      0.02491     0.14651
             23  H  3  X      0.01366     0.03225
             24  H  3  Y      0.03232     0.05979
             25  H  3  Z      0.01009     0.02958
             26  H  4  S      0.59089     0.44296
             27  H  4  S      0.06274     0.15371
             28  H  4  X      0.02761     0.05467
             29  H  4  Y      0.01274     0.03730
             30  H  4  Z      0.01564     0.03254

          ----- MULLIKEN ATOMIC OVERLAP POPULATIONS -----
          (OFF-DIAGONAL ELEMENTS NEED TO BE MULTIPLIED BY 2)

             1           2           3           4

    1    6.1972450
    2    0.2249099   0.4449884
    3    0.3071424  -0.0050021   0.3658436
    4    0.2337202  -0.0012879  -0.0042356   0.4814293

          TOTAL MULLIKEN AND LOWDIN ATOMIC POPULATIONS
       ATOM         MULL.POP.    CHARGE          LOW.POP.     CHARGE
    1 N             6.963017    0.036983         6.876066    0.123934
    2 H             0.663608    0.336392         0.683357    0.316643
    3 H             0.663748    0.336252         0.719381    0.280619
    4 H             0.709626    0.290374         0.721195    0.278805

          MULLIKEN SPHERICAL HARMONIC POPULATIONS
       ATOM           S       P       D      F      G      H      I    TOTAL
    1 N             3.54    3.41    0.01   0.00   0.00   0.00   0.00    6.96
    2 H             0.61    0.05    0.00   0.00   0.00   0.00   0.00    0.66
    3 H             0.61    0.06    0.00   0.00   0.00   0.00   0.00    0.66
    4 H             0.65    0.06    0.00   0.00   0.00   0.00   0.00    0.71

          ---------------------
          ELECTROSTATIC MOMENTS
          ---------------------

 POINT   1           X           Y           Z (BOHR)    CHARGE
                 0.000003    0.000004   -0.177185        1.00 (A.U.)
         DX          DY          DZ         /D/  (DEBYE)
     0.611684    0.723016    2.190401    2.386371
 ...... END OF PROPERTY EVALUATION ......
 CPU     0: STEP CPU TIME=     0.01 TOTAL CPU TIME=         12.8 (      0.2 MIN)
 TOTAL WALL CLOCK TIME=         12.8 SECONDS, CPU UTILIZATION IS    99.92%

     -------------------------------------------------
     GMC-PT/GMC-QDPT or general MCSCF input parameters
     -------------------------------------------------
 # of frozen core orbs. =         0 ->         0
 # of doubly occ. orbs. =         1
 # of active      orbs. =         7
 # of virtual     orbs. =        21
 # of active electrons  =         7
 # of states in CI      =         3
 Highest state in CI    =         3
 kstate =  1 1 1
 avecoe =  0.333 0.333 0.333
 State symmetry           = A           
 Assigned symmetry number = 1

 <<<Act. MO sym.: 1111111

 <<<Division of 1-ext.:  0
 <<<Division of 2-ext.:  0

     ------------------------
     Orbital canonicalization
     ------------------------

 MOs are canonicalized for core, virtual, and invariant-active orbital spaces.
 This is a part of the GMC-QDPT calculation.
 SCHWARZ INEQUALITY OVERHEAD:       465 INTEGRALS, T=        0.00
 DIRECT TRANSFORMATION SKIPS AO INTEGRAL STORAGE ON DISK.

 Averaged energy =     -55.677812334

 State #    1  Energy =     -55.808115985  S =  0.500
 State #    2  Energy =     -55.739471824  S =  0.500
 State #    3  Energy =     -55.485849194  S =  0.500

 Orbital energies for filled orbital space
  -15.986095
 Orbital energies for active orbital space
   -1.490522  -0.764778  -1.024150  -0.730372   0.099709
    0.210826   0.410441
 Orbital energies for external orbital space
    0.104106   0.194287   0.272091   0.524986   0.573136
    0.653996   0.879880   1.081414   1.120649   1.198506
    1.326242   1.457767   1.601758   1.716777   1.879797
    1.930591   2.137499   2.214520   2.595584   2.708066
    2.909352

 Zero values mean non-canonical orbitals.
 ... done with orbital canonicalization ...
 CPU     0: STEP CPU TIME=     0.64 TOTAL CPU TIME=         13.5 (      0.2 MIN)
 TOTAL WALL CLOCK TIME=         13.5 SECONDS, CPU UTILIZATION IS    99.93%

     --------------------------------------------
     PARTIAL TWO ELECTRON INTEGRAL TRANSFORMATION
     --------------------------------------------

 NUMBER OF CORE MOLECULAR ORBITALS     =    0
 NUMBER OF OCCUPIED MOLECULAR ORBITALS =    8
 TOTAL NUMBER OF MOLECULAR ORBITALS    =   29
 TOTAL NUMBER OF ATOMIC ORBITALS       =   30
 THRESHOLD FOR KEEPING TRANSFORMED 2E- INTEGRALS = 1.000E-09
 AO INTEGRALS WILL BE CALCULATED IN DIRECT MODE...
 DIRECT TRANSFORMATION SKIPS AO INTEGRAL STORAGE ON DISK.
 SCHWARZ INEQUALITY OVERHEAD:       465 INTEGRALS, T=        0.00

 PLAN A: REQUIREMENTS FOR FULLY IN-MEMORY TRANSFORMATION:
 # OF WORDS AVAILABLE =            100000000
 # OF WORDS NEEDED    =               221798

 PARALLEL ONLY WORKS WITH THE SEGMENTED ALGORITHM.
 ADJUSTING MEMORY TO USE SEGMENTED ALGORITHM.


 PLAN B: REQUIREMENTS FOR THE SEGMENTED TRANSFORMATION:
       MINIMUM=         124148 WORDS FOR 1 MOLECULAR ORBITAL PER PASS
       MAXIMUM=         221798 WORDS FOR ALL MOLECULAR ORBITALS IN 1 PASS
              (          13950 EXTRA WORDS INCLUDES 1 EXTRA ORBITAL/PASS)
 THIS RUN USES=         221798 WORDS,
 DISTRIBUTING   1 PASSES EACH CONTAINING     8 ORBITALS OVER   1 PROCESSORS.

 CHOOSING SEGMENTED PARTIAL TRANSFORMATION...
 DIRECT TRANSFORMATION SKIPS AO INTEGRAL STORAGE ON DISK.
 PASS #   1 TOOK        0.04 SECONDS.
 TOTAL NUMBER OF TRANSFORMED 2E- INTEGRALS KEPT =        29226
 ... END OF INTEGRAL TRANSFORMATION ...
 CPU     0: STEP CPU TIME=     0.04 TOTAL CPU TIME=         13.5 (      0.2 MIN)
 TOTAL WALL CLOCK TIME=         13.5 SECONDS, CPU UTILIZATION IS    99.85%

     --------     ------------------------------------------
     GMC-QDPT     Program written by H.Nakano (Kyushu Univ.)
     --------     ------------------------------------------

 *** Reference space

 Reference type: ORMAS (= Occupation restricted multiple active space)
 # of orbitals          =  7
 # of minimum electrons =  7
 # of maximum electrons =  7
 State symmetry    =    1 (input)
 2*Sz              =    1 (input)
 Spin multiplicity =    2 (input)
 Dimension of reference space =      1225  (from      3432 walks)

 Dimension of reference space =      1225  (from      1225 walks)

 <<<Ionized spaces for Ref-CI:
      0:         1225 /   -1-0:         1960 /  0-1-0:         2891

 ***                    ***
 *** Reference space CI ***
 ***                    ***

 Converged after   35 iterations

 Reference wavefunctions:

 State #    1  Energy =     -55.808115985  S =  0.500

      Det      Coef    Occupancy (Ignoring core)
      ---      ----    --------- --------- -----
        1    0.963914  11110001110000
       71    0.143158  11110001011000
      393    0.085758  10110101010010
      717    0.054128  11010011100001

 State #    2  Energy =     -55.739471824  S =  0.500

      Det      Coef    Occupancy (Ignoring core)
      ---      ----    --------- --------- -----
        1   -0.146344  11110001110000
       71    0.969651  11110001011000
      822   -0.054313  11010011001001

 State #    3  Energy =     -55.485849194  S =  0.500

      Det      Coef    Occupancy (Ignoring core)
      ---      ----    --------- --------- -----
       36   -0.970049  11110001101000
      113   -0.056794  10110100111000
      463   -0.087570  10110101001010

 Davidson method: CPU/Wall time =           0.48 /           0.48 sec.

 Oscillator strength (invalid if E(1)/=E(GS)):
 -----------------------------------------
   State                        f
 -----------------------------------------
     2     F(REF-CI)=        0.0004601832
     3     F(REF-CI)=        0.0066295688
 -----------------------------------------

 Dipole moment matrix elements, x, y, z, in A.U.

 Dimension of ionized spaces for PT:
 (N-2) space:         1715 /  (N-1) space:         2842 /  N space:         2891
 (N+1) space:         2842 /  (N+2) space:         1715

 <<<Ionized spaces for internal:
         0:         1225 /      -1-0:         1960 /     0-1-0:         2891
  -1-0-1-0:         2842 / 0-1-0-1-0:         3381

 Diagonal elements of averaged one-particle density matrix:
       2       3       4       5       6       7       8
  0.9921  0.9825  0.9862  0.9896  0.0204  0.0184  0.0108
  0.9859  0.6545  0.6640  0.6609  0.0145  0.0125  0.0078

 Orbital energies:
 -------- Doubly-occupied orbitals (highest several orbs.) -------
             1
 -1.598610D+01
 -------- Active orbitals ----------------------------------------
             2            3            4            5            6
 -1.490522D+00-7.647778D-01-1.024150D+00-7.303716D-01 9.970864D-02
             7            8
  2.108256D-01 4.104406D-01
 -------- External orbitals (lowest several orbs.) ---------------
             9           10           11           12           13
  1.041057D-01 1.942872D-01 2.720912D-01 5.249857D-01 5.731355D-01
            14           15           16           17           18
  6.539955D-01 8.798800D-01 1.081414D+00 1.120649D+00 1.198506D+00

 *** Quasi-degeneracy checking

 === Det (|Ci| > 1.0D-01 and dE < 5.0D-03)

 # of small denominators (single excitations)
 State       dEmin  dE < 5.0D-03  dE < 5.0D-04  dE < 5.0D-05  dE < 5.0D-06
 ----- ----------- ------------- ------------- ------------- -------------
     1    5.00D-03             0             0             0             0
     2    5.00D-03             0             0             0             0
     3    5.00D-03             0             0             0             0

 # of small denominators (double excitations)
 State       dEmin  dE < 5.0D-03  dE < 5.0D-04  dE < 5.0D-05  dE < 5.0D-06
 ----- ----------- ------------- ------------- ------------- -------------
     1    5.00D-03             0             0             0             0
     2    5.00D-03             0             0             0             0
     3    5.00D-03             0             0             0             0

 *** Zeroth-Order Setup (Granovsky's zeroth-order vectors)
 Zeroth-order effective Hamiltonian
  (= Sum_i e(i)*<I|a+(i)a(i)|J> ):
                   1            2            3
     1 -7.179485D+00
     2  8.451713D-03-7.167320D+00
     3 -1.419574D-03 2.684808D-03-6.887349D+00

 Zeroth-order vectors:
 State #    1
       MC st            1           2           3
       Coeff    8.896D-01  -4.566D-01   8.394D-03
 State #    2
       MC st            2           1           3
       Coeff    8.896D-01   4.566D-01  -6.313D-03
 State #    3
       MC st            3           2           1
       Coeff    9.999D-01   9.450D-03  -4.585D-03

 *** GMC-QDPT computation

 (Integral reading:  CPU/Wall time =           0.00 /           0.00 sec.)

 One-external:
   0 -ionized terms: CPU/Wall time =           0.03 /           0.04 sec.
 (-1)-ionized terms: CPU/Wall time =           0.08 /           0.08 sec.
 (+1)-ionized terms: CPU/Wall time =           0.03 /           0.02 sec.
 (+1)-ionized terms: CPU/Wall time =           0.00 /           0.01 sec.
 (+2)-ionized terms: CPU/Wall time =           0.00 /           0.00 sec.

 Internal:
 # of macro loops for internal contribution =         1 (input)
 Loop:    1
 Dimension of internal CISD space     =         0  (after screening)
 Space construction: CPU/Wall time =           0.02 /           0.02 sec.
 Internal terms:     CPU/Wall time =           0.00 /           0.00 sec.

 Two-external:
   0 -ionized terms: CPU/Wall time =           0.06 /           0.06 sec.
 (-1)-ionized terms: CPU/Wall time =           1.00 /           1.00 sec.
 (-2)-ionized terms: CPU/Wall time =           0.17 /           0.17 sec.

 Total time:         CPU/Wall time =           1.39 /           1.40 sec.

 ***                  ***
 *** GMC-QDPT Results ***
 ***                  ***

 Diagonal elements of effective Hamiltonian:
 Heff(  1) =   -55.89525935
 Heff(  2) =   -55.85846548
 Heff(  3) =   -55.59754208

 Off-diagonal elements of effective Hamiltonian:
                   1            2
     2 -2.473275D-02
     3  2.884728D-03-1.092768D-03

 ******** GMC-QDPT energies ********
 ----------------------------------------------------------------------------
   State                        1st order                           2nd order
 ----------------------------------------------------------------------------
     1     E(REF-CI)=      -55.8081159849   E(GMC-QDPT2)=      -55.9077010686
     2     E(REF-CI)=      -55.7394718240   E(GMC-QDPT2)=      -55.8460585690
     3     E(REF-CI)=      -55.4858491935   E(GMC-QDPT2)=      -55.5975072762
 ----------------------------------------------------------------------------

 Excitation energies (invalid if E(1)/=E(GS)):
 ----------------------------------------------------------------------------
   State                        1st order                           2nd order
 ----------------------------------------------------------------------------

     TZ Sorted GMC-PT ENERGIES:
         1      -55.9077010686
         2      -55.8460585690
         3      -55.5975072762
     2     E(REF-CI)=        1.8679037 eV   E(GMC-QDPT2)=        1.6773787 eV
     3     E(REF-CI)=        8.7693306 eV   E(GMC-QDPT2)=        8.4408074 eV
 ----------------------------------------------------------------------------

 Main characters of perturbed GMC-QDPT states:

 State #    1  Energy =     -55.907701069  S =  0.500

      Det      Coef    Occupancy (Ignoring core)
      ---      ----    --------- --------- -----
        1    0.965147  11110001110000
       71    0.134563  11110001011000
      393    0.085785  10110101010010
      717    0.054154  11010011100001

 State #    2  Energy =     -55.846058569  S =  0.500

      Det      Coef    Occupancy (Ignoring core)
      ---      ----    --------- --------- -----
        1    0.137796  11110001110000
       71   -0.970883  11110001011000
      822    0.054380  11010011001001

 State #    3  Energy =     -55.597507276  S =  0.500

      Det      Coef    Occupancy (Ignoring core)
      ---      ----    --------- --------- -----
       36   -0.970024  11110001101000
      113   -0.056835  10110100111000
      463   -0.087562  10110101001010

 <<<Max |V/de| = 3.045D-02  Thresh = 1.000D+00

 Oscillator strength (invalid if E(1)/=E(GS)):
 ----------------------------------------------------------------------------
   State                        1st order                           2nd order
 ----------------------------------------------------------------------------
     2     F(REF-CI)=        0.0004601832     F(GMC-PT2)=        0.0004348607
     3     F(REF-CI)=        0.0066295688     F(GMC-PT2)=        0.0064514613
 ----------------------------------------------------------------------------

 Dipole moment matrix elements, x, y, z, in A.U.
States    1    1        0.2294410093        0.3275026038        0.6937757515
States    1    2       -0.0626860117        0.0122487989       -0.0806366530
States    1    3       -0.0673962508       -0.1405411970        0.0830852755
States    2    1       -0.0626860117        0.0122487989       -0.0806366530
States    2    2        0.2371367358        0.1503548128        0.2976268038
States    2    3        0.0725483355       -0.0385903462       -0.0029162788
States    3    1       -0.0673962508       -0.1405411970        0.0830852755
States    3    2        0.0725483355       -0.0385903462       -0.0029162788
States    3    3        0.3820449602        0.5535601510        0.2352994086

 Oscillator strength (valid only when positive): 
 ----------------------------------------------------------------------------
  States                        1st order                           2nd order
 ----------------------------------------------------------------------------
  1  1     F(REF-CI)=        0.0000000000     F(GMC-PT2)=        0.0000000000
  1  2     F(REF-CI)=       -0.0004601832     F(GMC-PT2)=       -0.0004348607
  1  3     F(REF-CI)=       -0.0066295688     F(GMC-PT2)=       -0.0064514613
  2  1     F(REF-CI)=        0.0004601832     F(GMC-PT2)=        0.0004348607
  2  2     F(REF-CI)=        0.0000000000     F(GMC-PT2)=        0.0000000000
  2  3     F(REF-CI)=       -0.0011482425     F(GMC-PT2)=       -0.0011203003
  3  1     F(REF-CI)=        0.0066295688     F(GMC-PT2)=        0.0064514613
  3  2     F(REF-CI)=        0.0011482425     F(GMC-PT2)=        0.0011203003
  3  3     F(REF-CI)=        0.0000000000     F(GMC-PT2)=        0.0000000000
 CPU     0: STEP CPU TIME=     1.94 TOTAL CPU TIME=         15.5 (      0.3 MIN)
 TOTAL WALL CLOCK TIME=         15.5 SECONDS, CPU UTILIZATION IS    99.87%

     !!! DIABATIZATION FOR REF CI STATES !!!

 *******************************************************
          $DMO GROUP FOUND IN THE INPUT.
        DIABATIZATION OF ADIABATIC STATES BEGINS.
     PROGRAMMED BY TAO ZENG (CARLETON UNIVERSITY).
               Email: toby.zeng@carleton.ca
     See T. Zeng, J. Chem. Phys. 2017, 146, 144103
 *******************************************************

 *************************************************************************
     STEP 1: TRANSFORMATION OF ADIABATIC STATES TO THE DMO REPRESENTATION
         See Atchity and Ruedenberg, J. Chem. Phys. 1999, 111, 2910
 *************************************************************************

Read in Diabatic Molecualr Orbitals:

                      1          2          3          4          5

    1  N  1  S    0.008609   0.000000   0.000000  -0.013219   0.279491
    2  N  1  S    0.442914  -0.000000   0.000000  -0.184329   0.867803
    3  N  1  S    0.276913   0.000000  -0.000000  -0.288315   0.144236
    4  N  1  X   -0.000000   0.493155  -0.024636  -0.000000  -0.000000
    5  N  1  Y    0.000000   0.024636   0.493155  -0.000000   0.000000
    6  N  1  Z    0.090197   0.000000   0.000000   0.593421   0.705309
    7  N  1  X   -0.000000   0.210628  -0.010522   0.000000   0.000000
    8  N  1  Y    0.000000   0.010522   0.210628  -0.000000  -0.000000
    9  N  1  Z   -0.004381   0.000000   0.000000   0.381592  -0.106092
   10  N  1 XX   -0.000457   0.010719  -0.000535  -0.012387   0.006153
   11  N  1 YY   -0.000457  -0.010719   0.000535  -0.012387   0.006153
   12  N  1 ZZ    0.000914  -0.000000   0.000000   0.024773  -0.012306
   13  N  1 XY    0.000000  -0.000618  -0.012377  -0.000000   0.000000
   14  N  1 XZ   -0.000000   0.026529  -0.001325  -0.000000   0.000000
   15  N  1 YZ    0.000000   0.001325   0.026529  -0.000000   0.000000
   16  H  2  S    0.194462  -0.176074   0.343485   0.112865  -0.523343
   17  H  2  S    0.003574  -0.023812   0.046452   0.024014  -0.054445
   18  H  2  X    0.018760   0.009101   0.022834   0.009336  -0.039151
   19  H  2  Y   -0.032493   0.022287  -0.020044  -0.016171   0.067811
   20  H  2  Z   -0.009251   0.008464  -0.016511   0.018769  -0.010566
   21  H  3  S    0.194462  -0.209430  -0.324227   0.112865  -0.523343
   22  H  3  S    0.003574  -0.028322  -0.043847   0.024014  -0.054445
   23  H  3  X    0.018760   0.006781  -0.023627   0.009336  -0.039151
   24  H  3  Y    0.032493  -0.024174  -0.017723   0.016171  -0.067811
   25  H  3  Z   -0.009251   0.010067   0.015585   0.018769  -0.010566
   26  H  4  S    0.194462   0.385503  -0.019258   0.112865  -0.523343
   27  H  4  S    0.003574   0.052134  -0.002604   0.024014  -0.054445
   28  H  4  X   -0.037519  -0.032295   0.001613  -0.018672   0.078302
   29  H  4  Y    0.000000   0.001067   0.021353  -0.000000   0.000000
   30  H  4  Z   -0.009251  -0.018530   0.000926   0.018769  -0.010566

                      6          7

    1  N  1  S    0.000000  -0.000000
    2  N  1  S    0.000000  -0.000000
    3  N  1  S   -0.000000   0.000000
    4  N  1  X   -0.930415  -0.002083
    5  N  1  Y   -0.002083   0.930415
    6  N  1  Z   -0.000000   0.000000
    7  N  1  X   -0.046866  -0.000105
    8  N  1  Y   -0.000105   0.046866
    9  N  1  Z   -0.000000   0.000000
   10  N  1 XX    0.001538   0.000003
   11  N  1 YY   -0.001538  -0.000003
   12  N  1 ZZ   -0.000000   0.000000
   13  N  1 XY   -0.000004   0.001776
   14  N  1 XZ    0.039985   0.000090
   15  N  1 YZ    0.000090  -0.039985
   16  H  2  S   -0.362630  -0.631354
   17  H  2  S   -0.065964  -0.114846
   18  H  2  X    0.002763  -0.037520
   19  H  2  Y    0.037435   0.040736
   20  H  2  Z    0.001882   0.003276
   21  H  3  S   -0.365454   0.629724
   22  H  3  S   -0.066477   0.114549
   23  H  3  X    0.002595   0.037532
   24  H  3  Y   -0.037617   0.040567
   25  H  3  Z    0.001896  -0.003268
   26  H  4  S    0.728084   0.001630
   27  H  4  S    0.132441   0.000297
   28  H  4  X   -0.062317  -0.000140
   29  H  4  Y    0.000055  -0.024345
   30  H  4  Z   -0.003778  -0.000008

NUMBER OF SUB ACTIVE SPACES:   1
ROTATE ACTIVE MOS TO DMOS IN EACH SUB-SPACE

SPACE  1:

OVERLAP BETWEEN ORTHONORMAL AND PRE-ORTHONORMAL REF. DMOS

             1           2           3           4           5

    1    0.9752548   0.0181567   0.0095203  -0.0092601  -0.0061506
    2    0.0181567   0.8987231   0.0893277   0.0312564  -0.0567117
    3    0.0095203   0.0893277   0.9989112   0.0294685  -0.0687266
    4   -0.0092601   0.0312564   0.0294685   0.9923890  -0.0105780
    5   -0.0061506  -0.0567117  -0.0687266  -0.0105780   1.1774111
    6    0.0004487  -0.0730107   0.0872509   0.0394162  -0.0284584
    7    0.0014290  -0.0722620  -0.0244429  -0.0535390   0.0894269

             6           7

    1    0.0004487   0.0014290
    2   -0.0730107  -0.0722620
    3    0.0872509  -0.0244429
    4    0.0394162  -0.0535390
    5   -0.0284584   0.0894269
    6    1.0527950  -0.0017099
    7   -0.0017099   1.0421576
REFERENCE DMOS AFTER ORTHONORMALIZATION:

                      1          2          3          4          5

    1  N  1  S    0.009866   0.012896   0.014607  -0.012850   0.240472
    2  N  1  S    0.456129   0.036182   0.045278  -0.180810   0.748157
    3  N  1  S    0.281707   0.010188   0.011705  -0.289129   0.124778
    4  N  1  X   -0.008479   0.480862   0.007028   0.020079   0.000761
    5  N  1  Y   -0.007038   0.043004   0.512319   0.033881  -0.038102
    6  N  1  Z    0.101665   0.010912   0.022239   0.603609   0.608157
    7  N  1  X   -0.004141   0.237069  -0.028435  -0.004778   0.007966
    8  N  1  Y   -0.002014  -0.006546   0.214858  -0.002766   0.008058
    9  N  1  Z   -0.000970  -0.017029  -0.013995   0.386575  -0.090666
   10  N  1 XX   -0.000788   0.013107  -0.001201  -0.012943   0.005762
   11  N  1 YY   -0.000355  -0.011732   0.002397  -0.012157   0.004781
   12  N  1 ZZ    0.001143  -0.001375  -0.001197   0.025100  -0.010543
   13  N  1 XY    0.000106   0.000707  -0.012575   0.000385  -0.000788
   14  N  1 XZ   -0.000590   0.034008  -0.007697  -0.002350   0.002004
   15  N  1 YZ   -0.000124  -0.004086   0.026544  -0.002605   0.004200
   16  H  2  S    0.201687  -0.345498   0.364131   0.096397  -0.403714
   17  H  2  S    0.004229  -0.049432   0.051259   0.020897  -0.038956
   18  H  2  X    0.018916   0.003128   0.019372   0.006840  -0.029340
   19  H  2  Y   -0.033687   0.038034  -0.021613  -0.016317   0.056152
   20  H  2  Z   -0.009394   0.010875  -0.018790   0.019098  -0.009751
   21  H  3  S    0.204082  -0.224554  -0.301088   0.174488  -0.527111
   22  H  3  S    0.004387  -0.028893  -0.038039   0.034352  -0.059729
   23  H  3  X    0.019118   0.010641  -0.027058   0.011649  -0.037044
   24  H  3  Y    0.033794  -0.030484  -0.015900   0.021225  -0.063823
   25  H  3  Z   -0.009662   0.008905   0.013796   0.018004  -0.007573
   26  H  4  S    0.189707   0.476199  -0.156034   0.075816  -0.416931
   27  H  4  S    0.002450   0.068391  -0.023325   0.017619  -0.041675
   28  H  4  X   -0.037622  -0.037723   0.015338  -0.015808   0.064442
   29  H  4  Y   -0.000122  -0.002732   0.021454  -0.001711   0.002837
   30  H  4  Z   -0.008964  -0.022467   0.002318   0.019633  -0.009972

                      6          7

    1  N  1  S    0.006628  -0.020061
    2  N  1  S    0.025441  -0.070501
    3  N  1  S    0.013774  -0.024943
    4  N  1  X   -0.851669   0.031089
    5  N  1  Y   -0.042268   0.912726
    6  N  1  Z   -0.007322  -0.020049
    7  N  1  X   -0.025299   0.014706
    8  N  1  Y   -0.017959   0.048695
    9  N  1  Z   -0.016902   0.026104
   10  N  1 XX    0.003109  -0.000269
   11  N  1 YY   -0.001891  -0.001798
   12  N  1 ZZ   -0.001218   0.002067
   13  N  1 XY    0.001054   0.001547
   14  N  1 XZ    0.041122   0.002039
   15  N  1 YZ   -0.002250  -0.038526
   16  H  2  S   -0.414137  -0.582592
   17  H  2  S   -0.072345  -0.108133
   18  H  2  X    0.000126  -0.032487
   19  H  2  Y    0.042187   0.035677
   20  H  2  Z    0.003133   0.005293
   21  H  3  S   -0.357584   0.634947
   22  H  3  S   -0.064713   0.113798
   23  H  3  X    0.004065   0.039874
   24  H  3  Y   -0.038991   0.042896
   25  H  3  Z    0.000400  -0.000606
   26  H  4  S    0.723454   0.071522
   27  H  4  S    0.130703   0.009172
   28  H  4  X   -0.060743  -0.008780
   29  H  4  Y   -0.001813  -0.023380
   30  H  4  Z   -0.006339   0.000355

 -------------------------------------------
       MAXIMIZING MORMO OVERLAP TERM        
 -------------------------------------------
   SWEEP    VALUE       PROGRESS
     0     5.46152
     1     6.92786     1.46634750
     2     6.93939     0.01152987
     3     6.93939     0.00000074
     4     6.93939     0.00000000
     5     6.93939     0.00000000
 THE ROTATION IS DONE
FLIPPING SIGN FOR ORBITAL   7
ACTIVE ORBITALS AFTER MORMO:

                      1          2          3          4          5

    1  N  1  S    0.008395   0.018401   0.014173  -0.012270   0.179969
    2  N  1  S    0.430927   0.039960   0.023404  -0.189534   0.665738
    3  N  1  S    0.334773  -0.016323   0.019230  -0.273841   0.226621
    4  N  1  X   -0.004862   0.428838   0.030476   0.028309  -0.010622
    5  N  1  Y   -0.013294   0.067136   0.488677   0.032473  -0.050695
    6  N  1  Z    0.086220   0.027479   0.032398   0.605353   0.571575
    7  N  1  X   -0.009490   0.309880  -0.089990  -0.035210   0.030546
    8  N  1  Y    0.002378  -0.067305   0.213201  -0.035171   0.038518
    9  N  1  Z    0.027858  -0.045047  -0.037479   0.385314  -0.039828
   10  N  1 XX   -0.003794   0.020721  -0.004224  -0.011479   0.024800
   11  N  1 YY    0.003729  -0.020420   0.005328  -0.008539  -0.034359
   12  N  1 ZZ    0.000065  -0.000301  -0.001104   0.020018   0.009558
   13  N  1 XY    0.004633   0.000222  -0.009383  -0.002190  -0.040178
   14  N  1 XZ    0.001225   0.022669  -0.008076  -0.001193  -0.021296
   15  N  1 YZ    0.003044  -0.005077   0.016163  -0.005436  -0.018588
   16  H  2  S    0.183767  -0.224655   0.328477   0.093803  -0.413228
   17  H  2  S    0.007135  -0.139760   0.104024   0.032497  -0.054224
   18  H  2  X    0.001076   0.021812  -0.006127   0.000346  -0.023052
   19  H  2  Y   -0.030324   0.017804  -0.032510  -0.013835   0.039077
   20  H  2  Z   -0.007744   0.001355  -0.022721   0.016617  -0.019075
   21  H  3  S    0.182060  -0.223344  -0.323958   0.136320  -0.521697
   22  H  3  S   -0.001154  -0.029983  -0.030516   0.037363  -0.066479
   23  H  3  X    0.014247   0.008512  -0.024781   0.004225  -0.024221
   24  H  3  Y    0.030939  -0.029076  -0.030750   0.010965  -0.053609
   25  H  3  Z   -0.002628   0.003955   0.007554   0.022492  -0.011171
   26  H  4  S    0.182384   0.399760  -0.074921   0.087547  -0.439080
   27  H  4  S    0.002070   0.153365  -0.084371   0.026717  -0.061669
   28  H  4  X   -0.029576  -0.022227  -0.003520  -0.016562   0.047955
   29  H  4  Y   -0.011139  -0.023653   0.016940  -0.004378  -0.008567
   30  H  4  Z   -0.011150  -0.028115  -0.004780   0.016416  -0.012554

                      6          7

    1  N  1  S    0.051139  -0.085264
    2  N  1  S    0.113752  -0.182702
    3  N  1  S   -0.108579   0.133331
    4  N  1  X   -0.856132  -0.001245
    5  N  1  Y   -0.004810   0.888768
    6  N  1  Z   -0.019806  -0.013175
    7  N  1  X   -0.022316   0.075174
    8  N  1  Y   -0.081929   0.106188
    9  N  1  Z   -0.021420   0.050143
   10  N  1 XX    0.036738   0.024118
   11  N  1 YY   -0.050925   0.000913
   12  N  1 ZZ    0.014187  -0.025031
   13  N  1 XY    0.017895  -0.000643
   14  N  1 XZ    0.016446  -0.009095
   15  N  1 YZ    0.015093  -0.041383
   16  H  2  S   -0.290582  -0.575618
   17  H  2  S   -0.170279  -0.183357
   18  H  2  X    0.039863  -0.016651
   19  H  2  Y    0.026886   0.039262
   20  H  2  Z    0.020311  -0.008669
   21  H  3  S   -0.341992   0.621602
   22  H  3  S   -0.069887   0.120272
   23  H  3  X   -0.007912   0.026821
   24  H  3  Y   -0.028096   0.053396
   25  H  3  Z   -0.007321   0.022263
   26  H  4  S    0.661368  -0.023972
   27  H  4  S    0.242975   0.064792
   28  H  4  X   -0.033720   0.011116
   29  H  4  Y   -0.014406  -0.045450
   30  H  4  Z   -0.010838  -0.018992

Actually Used Diabatic Molecualr Orbitals:

                      1          2          3          4          5

    1  N  1  S    0.008395   0.018401   0.014173  -0.012270   0.179969
    2  N  1  S    0.430927   0.039960   0.023404  -0.189534   0.665738
    3  N  1  S    0.334773  -0.016323   0.019230  -0.273841   0.226621
    4  N  1  X   -0.004862   0.428838   0.030476   0.028309  -0.010622
    5  N  1  Y   -0.013294   0.067136   0.488677   0.032473  -0.050695
    6  N  1  Z    0.086220   0.027479   0.032398   0.605353   0.571575
    7  N  1  X   -0.009490   0.309880  -0.089990  -0.035210   0.030546
    8  N  1  Y    0.002378  -0.067305   0.213201  -0.035171   0.038518
    9  N  1  Z    0.027858  -0.045047  -0.037479   0.385314  -0.039828
   10  N  1 XX   -0.003794   0.020721  -0.004224  -0.011479   0.024800
   11  N  1 YY    0.003729  -0.020420   0.005328  -0.008539  -0.034359
   12  N  1 ZZ    0.000065  -0.000301  -0.001104   0.020018   0.009558
   13  N  1 XY    0.004633   0.000222  -0.009383  -0.002190  -0.040178
[...]
     - ROTATION TO DIABATIC STATES -    
 ---------------------------------------
 ROWS=ADIABATIC, COLUMNS=DIABATIC STATES

             1           2           3

    1   -0.9655614  -0.2472157  -0.0810906
    2    0.1771052  -0.8528499   0.4912034
    3   -0.1905913   0.4599255   0.8672621

 ---------------------------------------
          - DIABATIC STATES -           
 ---------------------------------------

 State #    1  Energy =     -55.894499775

      Det      Coef        Coefp    Occupancy (Ignoring core)
      ---      ----        ----    --------- --------- -----
        1    0.906110   -0.906110  222+000
        8   -0.157357    0.157357  2-2+0+0
      386    0.128407   -0.128407  2+2+0-0
        7    0.115712    0.115712  22-+0+0
      351   -0.109040   -0.109040  22++0-0
        3   -0.098450   -0.098450  22-++00
        4   -0.097583    0.097583  2-2++00
      141    0.093725    0.093725  22++-00
      176    0.093654   -0.093654  2+2+-00
       18   -0.088656    0.088656  2-2+00+
      736    0.084399   -0.084399  2+2+00-
       16   -0.068455    0.068455  222000+
      717   -0.065817   -0.065817  220+002
      393   -0.062787   -0.062787  202+020
        6    0.060927   -0.060927  22200+0
       13    0.042819    0.042819  2--+++0
      708    0.041204   -0.041204  2-++0+-
      215   -0.039998   -0.039998  022+200
      402    0.038004   -0.038004  2+-+0-+
      561    0.037774    0.037774  2+++--0
      705   -0.035379   -0.035379  -2+++0-
      227   -0.035305   -0.035305  +2-+-0+
      218    0.034812   -0.034812  +-2+-+0
      390    0.034111   -0.034111  -+2++-0
     1051   -0.033070   -0.033070  2+++0--
      212    0.032001    0.032001  +220200
      387   -0.030747    0.030747  2+20+-0
       29   -0.029745   -0.029745  2--+0++
       76    0.028950    0.028950  2+2-0+0
      113   -0.028010    0.028010  +-220+0
       17    0.027553    0.027553  22-+00+
      143   -0.027033   -0.027033  220+200
       11    0.026781   -0.026781  2-20++0
      183   -0.026736    0.026736  202+-+0
      389    0.026548    0.026548  202++-0
      147    0.026455   -0.026455  220+-+0
       27   -0.026407    0.026407  2-200++
      424   -0.025989   -0.025989  +-2++-0
      353   -0.025623   -0.025623  220++-0
      773    0.025610   -0.025610  +2-++0-
      702    0.025025    0.025025  22+0+0-
      148   -0.024894   -0.024894  2-++-+0
      184   -0.024567   -0.024567  -+2+-+0
      159    0.024368   -0.024368  -2++-0+
       51   -0.023554    0.023554  22+-00+
      388   -0.023482   -0.023482  2+-++-0
      179   -0.023390   -0.023390  202+200
      391    0.023343   -0.023343  2+20020
      122    0.023319    0.023319  +2-200+
      738   -0.021826   -0.021826  2+-++0-
      366   -0.021074    0.021074  22+00-+
      158   -0.020822   -0.020822  2-++-0+

 State #    2  Energy =     -55.797249467

      Det      Coef        Coefp    Occupancy (Ignoring core)
      ---      ----        ----    --------- --------- -----
       71   -0.905917    0.905917  2+22000
       74    0.133215   -0.133215  2022+00
       77    0.126842   -0.126842  2+-20+0
       78    0.118654   -0.118654  20220+0
      246    0.113625    0.113625  2++2-00
      456   -0.112167   -0.112167  2++20-0
       76    0.094441    0.094441  2+2-0+0
       73   -0.091351    0.091351  2+-2+00
       88    0.090706   -0.090706  202200+
      736    0.085621   -0.085621  2+2+00-
       86   -0.081501   -0.081501  2+2-00+
      386   -0.078692    0.078692  2+2+0-0
      822    0.064996   -0.064996  2+02002
       72   -0.054076   -0.054076  2+2-+00
      813    0.047214   -0.047214  20+20+-
       83    0.045622   -0.045622  20-2++0
      106    0.044869    0.044869  +222000
       99   -0.043016    0.043016  20-20++
      176    0.042852   -0.042852  2+2+-00
       36    0.042753    0.042753  22+2000
       81    0.042657    0.042657  202-++0
      320    0.040153    0.040153  0+22200
      183   -0.039813    0.039813  202+-+0
      323   -0.038280    0.038280  +022-+0
      113    0.036571   -0.036571  +-220+0
      810   -0.036071   -0.036071  -++2+0-
      180   -0.035885    0.035885  -+2+200
      177    0.035292   -0.035292  2+20200
      317    0.035158   -0.035158  ++2-200
      332   -0.033127    0.033127  ++-2-0+
      252   -0.031775   -0.031775  2+02-+0
       97   -0.029491   -0.029491  202-0++
      111    0.028839   -0.028839  +22-0+0
      253   -0.027696   -0.027696  20+2-+0
       38   -0.027597    0.027597  2202+00
      393   -0.026945   -0.026945  202+020
      248    0.026605   -0.026605  2+02200
      807   -0.026573    0.026573  2++-+0-
      192   -0.026386    0.026386  2+-+-0+
      742    0.025248    0.025248  2+-+0+-
      529    0.025229    0.025229  +022+-0
      878    0.024740    0.024740  ++-2+0-
      264    0.023747   -0.023747  -++2-0+
      263   -0.023497   -0.023497  20+2-0+
      526   -0.023418   -0.023418  ++220-0
       89   -0.022743   -0.022743  -+2200+
       39   -0.022274   -0.022274  2-+2+00
       96   -0.022050   -0.022050  2+--0++
      458    0.022037   -0.022037  2+02+-0
      743    0.021269    0.021269  202+0+-
      534    0.020434    0.020434  0+22020

 State #    3  Energy =     -55.659517673

      Det      Coef        Coefp    Occupancy (Ignoring core)
      ---      ----        ----    --------- --------- -----
       36   -0.909434   -0.909434  22+2000
      456   -0.131688   -0.131688  2++20-0
       43    0.117771    0.117771  2-+20+0
       42   -0.109135    0.109135  22020+0
      246   -0.101833   -0.101833  2++2-00
       38    0.099875   -0.099875  2202+00
       53    0.094371    0.094371  2-+200+
       51   -0.092599    0.092599  22+-00+
      806   -0.092168   -0.092168  2++200-
      701    0.081046    0.081046  22++00-
      463    0.068893   -0.068893  20+2020
       39    0.066151    0.066151  2-+2+00
       37   -0.064788    0.064788  22+-+00
      351   -0.064319   -0.064319  22++0-0
       41    0.050649   -0.050649  22+-0+0
      472   -0.047660   -0.047660  2+020-+
       71   -0.043914    0.043914  2+22000
       64    0.042959   -0.042959  2-020++
      121   -0.041485    0.041485  +22-00+
      285    0.041462   -0.041462  02+2200
      457   -0.040706    0.040706  2++-+-0
      112   -0.039444   -0.039444  +2-20+0
      460   -0.037809   -0.037809  -++2+-0
      282    0.037457    0.037457  +2+-200
      106    0.037019    0.037019  +222000
      148   -0.036811   -0.036811  2-++-+0
       73    0.035682   -0.035682  2+-2+00
      145   -0.035436   -0.035436  -2++200
      142    0.035313    0.035313  22+0200
      297    0.035010   -0.035010  +202-0+
      141    0.034951    0.034951  22++-00
      288   -0.034791   -0.034791  +-+2-+0
       46    0.033992   -0.033992  2-+-++0
       48   -0.033221    0.033221  2-02++0
      561    0.031037    0.031037  2+++--0
        3    0.029837    0.029837  22-++00
      249    0.029210   -0.029210  20+2200
       52    0.029089   -0.029089  220200+
      358   -0.027926    0.027926  2-++020
      254    0.027351   -0.027351  -++2-+0
      461    0.027214   -0.027214  2++-020
       62   -0.026722    0.026722  2-+-0++
      157    0.026108   -0.026108  220+-0+
      494    0.025758   -0.025758  +-+2+-0
      253    0.025751    0.025751  20+2-+0
     1051   -0.025226   -0.025226  2+++0--
       16   -0.024401    0.024401  222000+
      281    0.022890   -0.022890  +2+2-00
      113    0.022460   -0.022460  +-220+0
      843   -0.021851   -0.021851  +202+0-
      808    0.021569   -0.021569  2+02+0-
      108   -0.021389   -0.021389  +2-2+00
      459   -0.021229    0.021229  20+2+-0
       19    0.020884    0.020884  -22+00+
      771    0.020602    0.020602  +22+00-
       44    0.020150   -0.020150  -2+20+0

 ---------------------------------------
      - DIABATIC STATES IN CMO -        
 ---------------------------------------

 State #    1  Energy =     -55.894499775

      Det      Coef        Coefp    Occupancy (Ignoring core)
      ---      ----        ----    --------- --------- -----
        1    0.910147   -0.910147  222+000
       71    0.301258   -0.301258  2+22000
       36    0.172342    0.172342  22+2000
      393   -0.082890   -0.082890  202+020
      717   -0.054715   -0.054715  220+002
      106   -0.041376   -0.041376  +222000
      215   -0.037923   -0.037923  022+200
      388   -0.036822   -0.036822  2+-++-0
      143   -0.036176   -0.036176  220+200
       17   -0.033980   -0.033980  22-+00+
      390    0.033408   -0.033408  -+2++-0
        2    0.033253   -0.033253  2220+00
      179   -0.031938   -0.031938  202+200
      387   -0.031091    0.031091  2+20+-0
      113   -0.030464    0.030464  +-220+0
        8   -0.030343    0.030343  2-2+0+0
      402   -0.029829    0.029829  2+-+0-+
      218    0.029563   -0.029563  +-2+-+0
       76    0.028907    0.028907  2+2-0+0
      212    0.027771    0.027771  +220200
      708   -0.025687    0.025687  2-++0+-
      148   -0.025530   -0.025530  2-++-+0
      108    0.024916    0.024916  +2-2+00
      705    0.023955    0.023955  -2+++0-
       74   -0.023431    0.023431  2022+00
      177   -0.023306    0.023306  2+20200
       13    0.023250    0.023250  2--+++0
      561    0.022137    0.022137  2+++--0
      787   -0.022041    0.022041  +2-+002
      227    0.021938    0.021938  +2-+-0+
      716   -0.021618   -0.021618  22+0002
      719    0.021274    0.021274  -2++002
      424   -0.021205   -0.021205  +-2++-0
      357   -0.021120   -0.021120  220+020
        3    0.021044    0.021044  22-++00
       11    0.020576   -0.020576  2-20++0
      358   -0.020381    0.020381  2-++020
      184   -0.020181   -0.020181  -+2+-+0

 State #    2  Energy =     -55.797249467

      Det      Coef        Coefp    Occupancy (Ignoring core)
      ---      ----        ----    --------- --------- -----
       71   -0.793257    0.793257  2+22000
       36   -0.453068   -0.453068  22+2000
        1    0.349743   -0.349743  222+000
      822    0.049484   -0.049484  2+02002
      248    0.041913   -0.041913  2+02200
      177    0.035293   -0.035293  2+20200
       74    0.034401   -0.034401  2022+00
      253   -0.034373   -0.034373  20+2-+0
      113    0.033503   -0.033503  +-220+0
      320    0.030918    0.030918  0+22200
      112    0.029241    0.029241  +2-20+0
        6    0.029172   -0.029172  22200+0
      813   -0.028225    0.028225  20+20+-
      148   -0.028149   -0.028149  2-++-+0
      183   -0.027973    0.027973  202+-+0
      142    0.027883    0.027883  22+0200
       83    0.026701   -0.026701  20-2++0
      323   -0.025740    0.025740  +022-+0
      143   -0.024879   -0.024879  220+200
      107   -0.024125    0.024125  +22-+00
      463    0.023880   -0.023880  20+2020
      317    0.023274   -0.023274  ++2-200
      393   -0.022532   -0.022532  202+020
       81    0.022346    0.022346  202-++0
      247   -0.022003    0.022003  2++-200
      180   -0.021533    0.021533  -+2+200
      810    0.021497    0.021497  -++2+0-
      109    0.020953   -0.020953  +-22+00
      751    0.020862   -0.020862  2+20002
      145   -0.020754   -0.020754  -2++200
       87   -0.020705    0.020705  2+-200+
      249    0.020698   -0.020698  20+2200

 State #    3  Energy =     -55.659517673

      Det      Coef        Coefp    Occupancy (Ignoring core)
      ---      ----        ----    --------- --------- -----
       36   -0.840345   -0.840345  22+2000
       71    0.490630   -0.490630  2+22000
      463    0.085760   -0.085760  20+2020
      113    0.041072   -0.041072  +-220+0
      142    0.040191    0.040191  22+0200
      108   -0.040045   -0.040045  +2-2+00
      121    0.036874   -0.036874  +22-00+
      285    0.036672   -0.036672  02+2200
        3    0.036049    0.036049  22-++00
      107   -0.034289    0.034289  +22-+00
      458    0.031502   -0.031502  2+02+-0
      460   -0.031104   -0.031104  -++2+-0
       72    0.030845    0.030845  2+2-+00
        4   -0.030705    0.030705  2-2++00
       74    0.030569   -0.030569  2022+00
      462   -0.029810    0.029810  2+02020
       78   -0.028556    0.028556  20220+0
      472    0.028267    0.028267  2+020-+
      457   -0.028187    0.028187  2++-+-0
      288   -0.027885   -0.027885  +-+2-+0
      177   -0.026189    0.026189  2+20200
      145   -0.026171   -0.026171  -2++200
      148   -0.025006   -0.025006  2-++-+0
       52   -0.024917    0.024917  220200+
      282    0.024686    0.024686  +2+-200
      716    0.024298    0.024298  22+0002
      249    0.023979   -0.023979  20+2200
      561    0.022931    0.022931  2+++--0
      771   -0.022159   -0.022159  +22+00-
       79   -0.022040   -0.022040  -+220+0
       37   -0.021959    0.021959  22+-+00
       40    0.021474   -0.021474  -2+2+00
       51   -0.021434    0.021434  22+-00+
       48   -0.021173    0.021173  2-02++0
       46    0.020781   -0.020781  2-+-++0
      254    0.020655   -0.020655  -++2-+0

 ---------------------------------------
    -DIABATIC STATES IN PROTOTYPES-     
 ---------------------------------------

     STATE:    1
 Group Ref#    Coefficients
     1    1    0.926340
     2    2    0.000131
     3    3   -0.006337

WEIGHT OF LISTED PROTOTYPES:   85.81%

     STATE:    2
 Group Ref#    Coefficients
     1    1    0.000131
     2    2    0.925353
     3    3   -0.001561

WEIGHT OF LISTED PROTOTYPES:   85.63%

     STATE:    3
 Group Ref#    Coefficients
     1    1   -0.006362
     2    2   -0.001566
     3    3    0.922746

WEIGHT OF LISTED PROTOTYPES:   85.15%

     DIRECT MAX. DIABATIZATION FINISHED    
 CPU     0: STEP CPU TIME=     0.25 TOTAL CPU TIME=         15.7 (      0.3 MIN)
 TOTAL WALL CLOCK TIME=         15.7 SECONDS, CPU UTILIZATION IS    99.87%

DIABATS FOR SPIN-ORBIT CALCULATION ARE READY

TRANSITION DIPOLES BETWEEN ADIABATS (in A.U.):

STATE PAIR      X         Y         Z
    1    1  0.229441  0.327503  0.693776
    2    1 -0.062686  0.012249 -0.080637
    2    2  0.237137  0.150355  0.297627
    3    1 -0.067396 -0.140541  0.083085
    3    2  0.072548 -0.038590 -0.002916
    3    3  0.382045  0.553560  0.235299


TRANSITION DIPOLES BETWEEN DIABATS (in A.U.):

STATE PAIR      X         Y         Z
    1    1  0.226960  0.276845  0.723051
    2    1 -0.018960  0.062863  0.003459
    2    2  0.199298  0.313869  0.258045
    3    1  0.065821  0.054438  0.012263
    3    2  0.040616  0.218939 -0.032118
    3    3  0.422365  0.440703  0.245606

TRANSITION DIPOLES BETWEEN DIRECT MAX. DIABATS (in A.U.):

STATE PAIR      X         Y         Z
    1    1  0.226962  0.276847  0.723051
    2    1 -0.018959  0.062866  0.003459
    2    2  0.199298  0.313870  0.258045
    3    1  0.065824  0.054440  0.012257
    3    2  0.040616  0.218938 -0.032118
    3    3  0.422363  0.440701  0.245606
 No $TRANST Group Found.
 Quit without doing spin-orbit coupling
 ..... DONE WITH MP2 ENERGY .....
 CPU     0: STEP CPU TIME=     0.00 TOTAL CPU TIME=         15.7 (      0.3 MIN)
 TOTAL WALL CLOCK TIME=         15.7 SECONDS, CPU UTILIZATION IS    99.87%
            100000000  WORDS OF DYNAMIC MEMORY USED
 EXECUTION OF GAMESS TERMINATED NORMALLY Wed Nov 16 20:11:46 2022
 DDI: 715512 bytes (0.7 MB / 0 MWords) used by master data server.

 ----------------------------------------
 CPU timing information for all processes
 ========================================
 0: 15.417 + 0.308 = 15.726
 ----------------------------------------
Note: The following floating-point exceptions are signalling: IEEE_DENORMAL
 ddikick.x: exited gracefully.
unset echo
----- accounting info -----
Files used on the master node io002 were:
-rw-r--r-- 1 bsonghao nooijen   20724 Nov 16 20:11 /scratch/bsonghao/nh3_diabatization_2d_at_mode_7_8_dist0.6_0.5.F05
-rw-r--r-- 1 bsonghao nooijen  363520 Nov 16 20:11 /scratch/bsonghao/nh3_diabatization_2d_at_mode_7_8_dist0.6_0.5.F09
-rw-r--r-- 1 bsonghao nooijen 1995920 Nov 16 20:11 /scratch/bsonghao/nh3_diabatization_2d_at_mode_7_8_dist0.6_0.5.F10
-rw-r--r-- 1 bsonghao nooijen  131264 Nov 16 20:11 /scratch/bsonghao/nh3_diabatization_2d_at_mode_7_8_dist0.6_0.5.F13
-rw-r--r-- 1 bsonghao nooijen  180312 Nov 16 20:11 /scratch/bsonghao/nh3_diabatization_2d_at_mode_7_8_dist0.6_0.5.F15
-rw-r--r-- 1 bsonghao nooijen       0 Nov 16 20:11 /scratch/bsonghao/nh3_diabatization_2d_at_mode_7_8_dist0.6_0.5.F16
-rw-r--r-- 1 bsonghao nooijen    9808 Nov 16 20:11 /scratch/bsonghao/nh3_diabatization_2d_at_mode_7_8_dist0.6_0.5.F70
-rw-r--r-- 1 bsonghao nooijen    9808 Nov 16 20:11 /scratch/bsonghao/nh3_diabatization_2d_at_mode_7_8_dist0.6_0.5.F71
-rw-r--r-- 1 bsonghao nooijen   19608 Nov 16 20:11 /scratch/bsonghao/nh3_diabatization_2d_at_mode_7_8_dist0.6_0.5.F72
-rw-r--r-- 1 bsonghao nooijen   19608 Nov 16 20:11 /scratch/bsonghao/nh3_diabatization_2d_at_mode_7_8_dist0.6_0.5.F73
-rw-r--r-- 1 bsonghao nooijen 1920824 Nov 16 20:11 /scratch/bsonghao/nh3_diabatization_2d_at_mode_7_8_dist0.6_0.5.F74
-rw-r--r-- 1 bsonghao nooijen       0 Nov 16 20:11 /scratch/bsonghao/nh3_diabatization_2d_at_mode_7_8_dist0.6_0.5.F75
-rw-r--r-- 1 bsonghao nooijen   58848 Nov 16 20:11 /scratch/bsonghao/nh3_diabatization_2d_at_mode_7_8_dist0.6_0.5.F76
-rw-r--r-- 1 bsonghao nooijen       0 Nov 16 20:11 /scratch/bsonghao/nh3_diabatization_2d_at_mode_7_8_dist0.6_0.5.F77
-rw-r--r-- 1 bsonghao nooijen    1864 Nov 16 20:11 /scratch/bsonghao/nh3_diabatization_2d_at_mode_7_8_dist0.6_0.5.F78
-rw-r--r-- 1 bsonghao nooijen   39208 Nov 16 20:11 /scratch/bsonghao/nh3_diabatization_2d_at_mode_7_8_dist0.6_0.5.F79
-rw-r--r-- 1 bsonghao nooijen     104 Nov 16 20:11 /scratch/bsonghao/nh3_diabatization_2d_at_mode_7_8_dist0.6_0.5.F80
-rw-r--r-- 1 bsonghao nooijen   13472 Nov 16 20:11 /scratch/bsonghao/nh3_diabatization_2d_at_mode_7_8_dist0.6_0.5.F81
-rw-r--r-- 1 bsonghao nooijen      16 Nov 16 20:11 /scratch/bsonghao/nh3_diabatization_2d_at_mode_7_8_dist0.6_0.5.F82
-rw-r--r-- 1 bsonghao nooijen   19216 Nov 16 20:11 /scratch/bsonghao/nh3_diabatization_2d_at_mode_7_8_dist0.6_0.5.F83
-rw-r--r-- 1 bsonghao nooijen   29712 Nov 16 20:11 /scratch/bsonghao/nh3_diabatization_2d_at_mode_7_8_dist0.6_0.5.F84
-rw-r--r-- 1 bsonghao nooijen  401576 Nov 16 20:11 /scratch/bsonghao/nh3_diabatization_2d_at_mode_7_8_dist0.6_0.5.F85
-rw-r--r-- 1 bsonghao nooijen  903672 Nov 16 20:11 /scratch/bsonghao/nh3_diabatization_2d_at_mode_7_8_dist0.6_0.5.F86
-rw-r--r-- 1 bsonghao nooijen     656 Nov 16 20:11 /scratch/bsonghao/nh3_diabatization_2d_at_mode_7_8_dist0.6_0.5.F87
-rw-r--r-- 1 bsonghao nooijen   37424 Nov 16 20:11 /scratch/bsonghao/nh3_diabatization_2d_at_mode_7_8_dist0.6_0.5.F88
-rw-r--r-- 1 bsonghao nooijen     240 Nov 16 20:11 /scratch/bsonghao/nh3_diabatization_2d_at_mode_7_8_dist0.6_0.5.F89
-rw-r--r-- 1 bsonghao nooijen       0 Nov 16 20:11 /scratch/bsonghao/nh3_diabatization_2d_at_mode_7_8_dist0.6_0.5.F90
-rw-r--r-- 1 bsonghao nooijen   13760 Nov 16 20:11 /scratch/bsonghao/nh3_diabatization_2d_at_mode_7_8_dist0.6_0.5.F91
-rw-r--r-- 1 bsonghao nooijen   22776 Nov 16 20:11 /scratch/bsonghao/nh3_diabatization_2d_at_mode_7_8_dist0.6_0.5.F92
-rw-r--r-- 1 bsonghao nooijen   23168 Nov 16 20:11 /scratch/bsonghao/nh3_diabatization_2d_at_mode_7_8_dist0.6_0.5.F93
-rw-r--r-- 1 bsonghao nooijen   22776 Nov 16 20:11 /scratch/bsonghao/nh3_diabatization_2d_at_mode_7_8_dist0.6_0.5.F94
-rw-r--r-- 1 bsonghao nooijen   13760 Nov 16 20:11 /scratch/bsonghao/nh3_diabatization_2d_at_mode_7_8_dist0.6_0.5.F95
-rw-r--r-- 1 bsonghao nooijen   29440 Nov 16 20:11 /scratch/bsonghao/nh3_diabatization_2d_at_mode_7_8_dist0.6_0.5.F96
-rw-r--r-- 1 bsonghao nooijen    1184 Nov 16 20:11 /scratch/bsonghao/nh3_diabatization_2d_at_mode_7_8_dist0.6_0.5.F97
-rw-r--r-- 1 bsonghao nooijen    9808 Nov 16 20:11 /scratch/bsonghao/nh3_diabatization_2d_at_mode_7_8_dist0.6_0.5.F98
-rw-r--r-- 1 bsonghao nooijen   30264 Nov 16 20:11 /scratch/bsonghao/nh3_diabatization_2d_at_mode_7_8_dist0.6_0.5.F99
ls: No match.
ls: No match.
ls: No match.
Wed 16 Nov 2022 08:11:49 PM EST
0.299u 0.031s 0:19.09 1.6%	0+0k 48+224io 0pf+0w
