----- GAMESS execution script 'rungms' -----
This job is running on host io002
under operating system Linux at Wed 16 Nov 2022 06:49:45 PM EST
Available scratch disk space (Kbyte units) at beginning of the job is
Filesystem       1K-blocks       Used   Available Use% Mounted on
/dev/sdc1      15378471580 3278917120 11318349060  23% /scratch
GAMESS temporary binary files will be written to /scratch/bsonghao
GAMESS supplementary output files will be written to /home/bsonghao/.gamess_ascii_files/267638
Copying input file nh3_diabatization_2d_at_mode_7_8_dist-0.4_-0.7.inp to your run's scratch directory...
cp nh3_diabatization_2d_at_mode_7_8_dist-0.4_-0.7.inp /scratch/bsonghao/nh3_diabatization_2d_at_mode_7_8_dist-0.4_-0.7.F05
unset echo
/home/bjb2chen/gamess/ddikick.x /home/bjb2chen/gamess/gamess.00.x nh3_diabatization_2d_at_mode_7_8_dist-0.4_-0.7 -ddi 1 1 io002 -scr /scratch/bsonghao

 Distributed Data Interface kickoff program.
 Initiating 1 compute processes on 1 nodes to run the following command:
 /home/bjb2chen/gamess/gamess.00.x nh3_diabatization_2d_at_mode_7_8_dist-0.4_-0.7 

          ******************************************************
          *         GAMESS VERSION = 02 AUG 2018 (R2)         *
          *             FROM IOWA STATE UNIVERSITY             *
          * M.W.SCHMIDT, K.K.BALDRIDGE, J.A.BOATZ, S.T.ELBERT, *
          *   M.S.GORDON, J.H.JENSEN, S.KOSEKI, N.MATSUNAGA,   *
          *          K.A.NGUYEN, S.J.SU, T.L.WINDUS,           *
          *       TOGETHER WITH M.DUPUIS, J.A.MONTGOMERY       *
          *         J.COMPUT.CHEM.  14, 1347-1363(1993)        *
          **************** 64 BIT LINUX VERSION ****************

  SINCE 1993, STUDENTS AND POSTDOCS WORKING AT IOWA STATE UNIVERSITY
  AND ALSO IN THEIR VARIOUS JOBS AFTER LEAVING ISU HAVE MADE IMPORTANT
  CONTRIBUTIONS TO THE CODE:
     IVANA ADAMOVIC, CHRISTINE AIKENS, YURI ALEXEEV, POOJA ARORA,
     ANDREY ASADCHEV, ROB BELL, PRADIPTA BANDYOPADHYAY, JONATHAN BENTZ,
     BRETT BODE, KURT BRORSEN, CALEB CARLIN, GALINA CHABAN, WEI CHEN,
     CHEOL HO CHOI, PAUL DAY, ALBERT DEFUSCO, NUWAN DESILVA, TIM DUDLEY,
     DMITRI FEDOROV, ALEX FINDLATER, GRAHAM FLETCHER, MARK FREITAG,
     KURT GLAESEMANN, ANASTASIA GUININA,
     DAN KEMP, GRANT MERRILL, NORIYUKI MINEZAWA, JONATHAN MULLIN,
     TAKESHI NAGATA, SEAN NEDD, HEATHER NETZLOFF, BOSILJKA NJEGIC, RYAN OLSON,
     MIKE PAK, BUU PHAM,
     SPENCER PRUITT, LUKE ROSKOP, JIM SHOEMAKER, LYUDMILA SLIPCHENKO,
     TONY SMITH, SAROM SOK LEANG, JIE SONG, TETSUYA TAKETSUGU, SIMON WEBB,
     PENG XU, SOOHAENG YOO, FEDERICO ZAHARIEV

  ADDITIONAL CODE HAS BEEN PROVIDED BY COLLABORATORS IN OTHER GROUPS:
     IOWA STATE UNIVERSITY:
          JOE IVANIC, AARON WEST, LAIMUTIS BYTAUTAS, KLAUS RUEDENBERG
     UNIVERSITY OF TOKYO: KIMIHIKO HIRAO, TAKAHITO NAKAJIMA,
          TAKAO TSUNEDA, MUNEAKI KAMIYA, SUSUMU YANAGISAWA,
          KIYOSHI YAGI, MAHITO CHIBA, SEIKEN TOKURA, NAOAKI KAWAKAMI
     UNIVERSITY OF AARHUS: FRANK JENSEN
     UNIVERSITY OF IOWA: VISVALDAS KAIRYS, HUI LI
     NATIONAL INST. OF STANDARDS AND TECHNOLOGY: WALT STEVENS, DAVID GARMER
     UNIVERSITY OF PISA: BENEDETTA MENNUCCI, JACOPO TOMASI
     UNIVERSITY OF MEMPHIS: HENRY KURTZ, PRAKASHAN KORAMBATH
     UNIVERSITY OF ALBERTA: TOBY ZENG, MARIUSZ KLOBUKOWSKI
     UNIVERSITY OF NEW ENGLAND: MARK SPACKMAN
     MIE UNIVERSITY: HIROAKI UMEDA
     NAT. INST. OF ADVANCED INDUSTRIAL SCIENCE AND TECHNOLOGY: KAZUO KITAURA
     MICHIGAN STATE UNIVERSITY:
          KAROL KOWALSKI, MARTA WLOCH, JEFFREY GOUR, JESSE LUTZ,
          WEI LI, JUN SHEN, J. EMILIANO DEUSTUA, PIOTR PIECUCH
     UNIVERSITY OF MINNESOTA:
          YINAN SHU
     UNIVERSITY OF SILESIA: MONIKA MUSIAL, STANISLAW KUCHARSKI
     FACULTES UNIVERSITAIRES NOTRE-DAME DE LA PAIX:
          OLIVIER QUINET, BENOIT CHAMPAGNE
     UNIVERSITY OF CALIFORNIA - SANTA BARBARA: BERNARD KIRTMAN
     INSTITUTE FOR MOLECULAR SCIENCE:
          KAZUYA ISHIMURA, MICHIO KATOUDA, AND SHIGERU NAGASE
     UNIVERSITY OF NOTRE DAME: ANNA POMOGAEVA, DAN CHIPMAN
     KYUSHU UNIVERSITY:
          HARUYUKI NAKANO,
          FENG LONG GU, JACEK KORCHOWIEC, MARCIN MAKOWSKI, AND YURIKO AOKI,
          HIROTOSHI MORI AND EISAKU MIYOSHI
     PENNSYLVANIA STATE UNIVERSITY:
          TZVETELIN IORDANOV, CHET SWALINA, JONATHAN SKONE,
          SHARON HAMMES-SCHIFFER
     WASEDA UNIVERSITY:
          MASATO KOBAYASHI, TOMOKO AKAMA, TSUGUKI TOUMA,
          TAKESHI YOSHIKAWA, YASUHIRO IKABATA, JUNJI SEINO,
          YUYA NAKAJIMA, HIROMI NAKAI
     NANJING UNIVERSITY: SHUHUA LI
     UNIVERSITY OF NEBRASKA:
          PEIFENG SU, DEJUN SI, NANDUN THELLAMUREGE, YALI WANG, HUI LI
     UNIVERSITY OF ZURICH: ROBERTO PEVERATI, KIM BALDRIDGE
     N. COPERNICUS UNIVERSITY AND JACKSON STATE UNIVERSITY:
          MARIA BARYSZ
     UNIVERSITY OF COPENHAGEN: Jimmy Kromann, CASPER STEINMANN
     TOKYO INSTITUTE OF TECHNOLOGY: HIROYA NAKATA
     NAGOYA UNIVERSITY: YOSHIO NISHIMOTO, STEPHAN IRLE
     MOSCOW STATE UNIVERSITY: VLADIMIR MIRONOV

 EXECUTION OF GAMESS BEGUN Wed Nov 16 18:49:45 2022

            ECHO OF THE FIRST FEW INPUT CARDS -
 INPUT CARD> $system kdiag=3 mwords=100 memddi=1000 parall=.t. $end                         
 INPUT CARD> $contrl runtyp=energy ispher=1 $end                                            
 INPUT CARD> $contrl icut=9 itol=20 inttyp=rysquad qmttol=1.0d-05 nosym=1 $end              
 INPUT CARD> $scf    npunch=2 conv=1.0d-06 dirscf=.t.      $end                             
 INPUT CARD> $contrl scftyp=mcscf  mult=2 maxit=200 icharg=1 mplevl=2 $end                  
 INPUT CARD> $guess  guess=moread norb=29 purify=.t. $end                                   
 INPUT CARD> $basis  gbasis=ccd $end                                                        
 INPUT CARD> $mcscf  cistep=gmcci fullnr=.t. finci=mos                                      
 INPUT CARD>         acurcy=1.d-6 maxit=100 $end                                            
 INPUT CARD> $trans  dirtrf=.t. $end                                                        
 INPUT CARD> $mrmp   mrpt=gmcpt rdvecs=.f. $end                                             
 INPUT CARD> $gmcpt  nmofzc=0 nmodoc=1 nmoact=7 nelact=7 stsym(1)=A                         
 INPUT CARD>         reftyp=ormas nspace=1 mstart(1)=2 mine(1)=7 maxe(1)=7                  
 INPUT CARD>         kstate(1)=1,1,1                                                        
 INPUT CARD>         wstate(1)=1,1,1                                                        
 INPUT CARD>         iwgt=0 thrwgt=-1.0 krot=.f. kszdoe=.f. knospn=.f.                      
 INPUT CARD>         thrde=-1.0 edshft=0.02 $end                                            
 INPUT CARD> $data                                                                          
 INPUT CARD> NH3+ 3 states calculation at NH3 structure.                                    
 INPUT CARD> c1                                                                             
 INPUT CARD>N 7.0 0.04360242600000001 0.024915612000000004 -0.1693803062                    
 INPUT CARD>H 1.0 -0.974570253 0.5113271988000001 0.2574063351                              
 INPUT CARD>H 1.0 -0.668868971 -0.5656350858 0.44029224910000003                            
 INPUT CARD>H 1.0 1.037571834 -0.29190299 0.0716763111                                      
 INPUT CARD>$end                                                                            
 INPUT CARD>--- OPTIMIZED RHF      MO-S --- GENERATED AT Mon Nov 14 16:47:08 2022           
 INPUT CARD>E=      -56.3825050291, E(NUC)=   11.8429239490                                 
 INPUT CARD> $VEC                                                                           
 INPUT CARD> 1  1-1.00134066E+00-2.25158504E-03 3.44925845E-03 0.00000000E+00 0.00000000E+00
 INPUT CARD> 1  2-2.13170927E-03 0.00000000E+00 0.00000000E+00 6.57129898E-04-6.87950443E-05
 INPUT CARD> 1  3-6.87950443E-05 1.37590089E-04 0.00000000E+00 0.00000000E+00 0.00000000E+00
 INPUT CARD> 1  4 3.25502815E-04-4.84772356E-04 3.62525460E-04-6.27912517E-04-3.45956485E-04
 INPUT CARD> 1  5 3.25502815E-04-4.84772356E-04 3.62525460E-04 6.27912517E-04-3.45956485E-04
 INPUT CARD> 1  6 3.25502815E-04-4.84772356E-04-7.25050921E-04 0.00000000E+00-3.45956485E-04
 INPUT CARD> 2  1 1.31286642E-02-4.05911371E-01-2.82090992E-01 0.00000000E+00 0.00000000E+00
 INPUT CARD> 2  2-7.71489043E-02 0.00000000E+00 0.00000000E+00 9.73717494E-03 6.62450916E-04
 INPUT CARD> 2  3 6.62450916E-04-1.32490183E-03 0.00000000E+00 0.00000000E+00 0.00000000E+00
 INPUT CARD> 2  4-1.96090317E-01-1.96656153E-02-1.74855877E-02 3.02859263E-02 8.68214399E-03
 INPUT CARD> 2  5-1.96090317E-01-1.96656153E-02-1.74855877E-02-3.02859263E-02 8.68214399E-03
 INPUT CARD> 2  6-1.96090317E-01-1.96656153E-02 3.49711754E-02 0.00000000E+00 8.68214399E-03
 INPUT CARD> 3  1 0.00000000E+00 0.00000000E+00 0.00000000E+00 4.48608762E-01 0.00000000E+00
 INPUT CARD> 3  2 0.00000000E+00 2.18692520E-01 0.00000000E+00 0.00000000E+00 1.30198027E-02
 INPUT CARD> 3  3-1.30198027E-02 0.00000000E+00 0.00000000E+00 2.71832968E-02 0.00000000E+00
 INPUT CARD> 3  4-1.85332726E-01-7.03958951E-02 8.47929477E-03 1.95242443E-02 8.32835058E-03
 INPUT CARD> 3  5-1.85332726E-01-7.03958951E-02 8.47929477E-03-1.95242443E-02 8.32835058E-03
 INPUT CARD> 3  6 3.70665453E-01 1.40791790E-01-2.53376884E-02 0.00000000E+00-1.66567012E-02
 INPUT CARD> 4  1 0.00000000E+00 0.00000000E+00 0.00000000E+00 0.00000000E+00 4.48608762E-01
 INPUT CARD> 4  2 0.00000000E+00 0.00000000E+00 2.18692520E-01 0.00000000E+00 0.00000000E+00
 INPUT CARD> 4  3 0.00000000E+00 0.00000000E+00-1.50339731E-02 0.00000000E+00 2.71832968E-02
 INPUT CARD> 4  4 3.21005698E-01 1.21929267E-01 1.95242443E-02-1.40653607E-02-1.44251263E-02
  100000000 WORDS OF MEMORY AVAILABLE

     BASIS OPTIONS
     -------------
     GBASIS=CCD          IGAUSS=       0      POLAR=NONE    
     NDFUNC=       0     NFFUNC=       0     DIFFSP=       F
     NPFUNC=       0      DIFFS=       F     BASNAM=        


     RUN TITLE
     ---------
  NH3+ 3 states calculation at NH3 structure.                                    

 THE POINT GROUP OF THE MOLECULE IS C1      
 THE ORDER OF THE PRINCIPAL AXIS IS     0

 ATOM      ATOMIC                      COORDINATES (BOHR)
           CHARGE         X                   Y                   Z
 N           7.0     0.0823966375        0.0470836795       -0.3200823664
 H           1.0    -1.8416707340        0.9662682958        0.4864274408
 H           1.0    -1.2639790769       -1.0688953212        0.8320317053
 H           1.0     1.9607264588       -0.5516166661        0.1354485878

          INTERNUCLEAR DISTANCES (ANGS.)
          ------------------------------

                1 N          2 H          3 H          4 H     

   1 N       0.0000000    1.2064073 *  1.1081815 *  1.0707276 *
   2 H       1.2064073 *  0.0000000    1.1343493 *  2.1744862 *
   3 H       1.1081815 *  1.1343493 *  0.0000000    1.7671296 *
   4 H       1.0707276 *  2.1744862 *  1.7671296 *  0.0000000  

  * ... LESS THAN  3.000


     ATOMIC BASIS SET
     ----------------
 THE CONTRACTED PRIMITIVE FUNCTIONS HAVE BEEN UNNORMALIZED
 THE CONTRACTED BASIS FUNCTIONS ARE NOW NORMALIZED TO UNITY

  SHELL TYPE  PRIMITIVE        EXPONENT          CONTRACTION COEFFICIENT(S)

 N         

      1   S       1          9046.0000000    0.000699617413
      1   S       2          1357.0000000    0.005386054630
      1   S       3           309.3000000    0.027391021189
      1   S       4            87.7300000    0.103150591982
      1   S       5            28.5600000    0.278570663317
      1   S       6            10.2100000    0.448294849454
      1   S       7             3.8380000    0.278085928395
      1   S       8             0.7466000    0.015431561233

      2   S       9          9046.0000000   -0.000304990096
      2   S      10          1357.0000000   -0.002408026379
      2   S      11           309.3000000   -0.011944448725
      2   S      12            87.7300000   -0.048925992909
      2   S      13            28.5600000   -0.134472724725
      2   S      14            10.2100000   -0.315112577700
      2   S      15             3.8380000   -0.242857832550
      2   S      16             0.7466000    1.094382206854

      3   S      17             0.2248000    1.000000000000

      4   P      18            13.5500000    0.058905676772
      4   P      19             2.9170000    0.320461106714
      4   P      20             0.7973000    0.753042061792

      5   P      21             0.2185000    1.000000000000

      6   D      22             0.8170000    1.000000000000

 H         

      7   S      23            13.0100000    0.033498726390
      7   S      24             1.9620000    0.234800801174
      7   S      25             0.4446000    0.813682957883

      8   S      26             0.1220000    1.000000000000

      9   P      27             0.7270000    1.000000000000

 H         

     10   S      28            13.0100000    0.033498726390
     10   S      29             1.9620000    0.234800801174
     10   S      30             0.4446000    0.813682957883

     11   S      31             0.1220000    1.000000000000

     12   P      32             0.7270000    1.000000000000

 H         

     13   S      33            13.0100000    0.033498726390
     13   S      34             1.9620000    0.234800801174
     13   S      35             0.4446000    0.813682957883

     14   S      36             0.1220000    1.000000000000

     15   P      37             0.7270000    1.000000000000

 TOTAL NUMBER OF BASIS SET SHELLS             =   15
 NUMBER OF CARTESIAN GAUSSIAN BASIS FUNCTIONS =   30
 NOTE: THIS RUN WILL RESTRICT THE MO VARIATION SPACE TO SPHERICAL HARMONICS.
 THE NUMBER OF ORBITALS KEPT IN THE VARIATIONAL SPACE WILL BE PRINTED LATER.
 NUMBER OF ELECTRONS                          =    9
 CHARGE OF MOLECULE                           =    1
 SPIN MULTIPLICITY                            =    2
 NUMBER OF OCCUPIED ORBITALS (ALPHA)          =    5
 NUMBER OF OCCUPIED ORBITALS (BETA )          =    4
 TOTAL NUMBER OF ATOMS                        =    4
 THE NUCLEAR REPULSION ENERGY IS       10.8819736403

     $CONTRL OPTIONS
     ---------------
 SCFTYP=MCSCF        RUNTYP=ENERGY       EXETYP=RUN     
 MPLEVL=       2     CITYP =NONE         CCTYP =NONE         VBTYP =NONE    
 DFTTYP=NONE         TDDFT =NONE    
 MULT  =       2     ICHARG=       1     NZVAR =       0     COORD =UNIQUE  
 PP    =NONE         RELWFN=NONE         LOCAL =NONE         NUMGRD=       F
 ISPHER=       1     NOSYM =       1     MAXIT =     200     UNITS =ANGS    
 PLTORB=       F     MOLPLT=       F     AIMPAC=       F     FRIEND=        
 NPRINT=       7     IREST =       0     GEOM  =INPUT   
 NORMF =       0     NORMP =       0     ITOL  =      20     ICUT  =       9
 INTTYP=RYSQUAD      GRDTYP=BEST         QMTTOL= 1.0E-05

     $SYSTEM OPTIONS
     ---------------
  REPLICATED MEMORY=   100000000 WORDS (ON EVERY NODE).
 DISTRIBUTED MEMDDI=        1000 MILLION WORDS IN AGGREGATE,
 MEMDDI DISTRIBUTED OVER   1 PROCESSORS IS  1000000000 WORDS/PROCESSOR.
 TOTAL MEMORY REQUESTED ON EACH PROCESSOR=  1100000000 WORDS.
 TIMLIM=      525600.00 MINUTES, OR     365.0 DAYS.
 PARALL= T  BALTYP=  DLB     KDIAG=    3  COREFL= F
 MXSEQ2=     300 MXSEQ3=     150  mem10=         0

          ----------------
          PROPERTIES INPUT
          ----------------

     MOMENTS            FIELD           POTENTIAL          DENSITY
 IEMOM =       1   IEFLD =       0   IEPOT =       0   IEDEN =       0
 WHERE =COMASS     WHERE =NUCLEI     WHERE =NUCLEI     WHERE =NUCLEI  
 OUTPUT=BOTH       OUTPUT=BOTH       OUTPUT=BOTH       OUTPUT=BOTH    
 IEMINT=       0   IEFINT=       0                     IEDINT=       0
                                                       MORB  =       0

     -------------------------------
     INTEGRAL TRANSFORMATION OPTIONS
     -------------------------------
     NWORD  =            0
     CUTOFF = 1.0E-09     MPTRAN =       0
     DIRTRF =       T     AOINTS =DUP     

          ----------------------
          MCSCF INPUT PARAMETERS
          ----------------------
 CONVERGER SELECTION: FOCAS = F  SOSCF = F  FULLNR = T  QUD = F  JACOBI = F
 SECULAR EQUATION METHOD CISTEP = GMCCI   
 --- GENERAL INPUT OPTIONS:
 MAXIT =     100  MICIT =       1  ACURCY= 1.000E-06
 DAMP  =   0.000  CANONC=       T  ENGTOL= 1.000E-10
 EKT   =       F  NPUNCH=       2  NWORD =         0
 REGENERATE CI AFTER CONVERGENCE = NONE    
 DIABATIZATION AFTER CONVERGENCE =        F
 --- INPUT FOR FULLNR CONVERGER:
 METHOD=DM2       FORS  =       F  DROPC =       T
 LINSER=       F  FCORE =       F  NORB  =      30

          ----------------------
          INTEGRAL INPUT OPTIONS
          ----------------------
 NOPK  =       1 NORDER=       0 SCHWRZ=       T

 ------------------------------------------
 MULTIREFERENCE PERTURBATION THEORY CONTROL
 ------------------------------------------
 MRPT=GMCPT    READ CONVERGED MCSCF VECTORS= F


     ------------------------------------------
     THE POINT GROUP IS C1 , NAXIS= 1, ORDER= 1
     ------------------------------------------

 -- VARIATIONAL SPACE WILL BE RESTRICTED TO PURE SPHERICAL HARMONICS ONLY --
 AFTER EXCLUDING CONTAMINANT COMBINATIONS FROM THE CARTESIAN GAUSSIAN BASIS
 SET, THE NUMBER OF SPHERICAL HARMONICS KEPT IN THE VARIATION SPACE IS   29

     DIMENSIONS OF THE SYMMETRY SUBSPACES ARE
 A   =   29

 ..... DONE SETTING UP THE RUN .....
 CPU     0: STEP CPU TIME=     0.04 TOTAL CPU TIME=          0.0 (      0.0 MIN)
 TOTAL WALL CLOCK TIME=          0.0 SECONDS, CPU UTILIZATION IS   100.00%

          ********************
          1 ELECTRON INTEGRALS
          ********************
 TIME TO DO   DIPOLE INTEGRALS=      0.00
 ...... END OF ONE-ELECTRON INTEGRALS ......
 CPU     0: STEP CPU TIME=     0.00 TOTAL CPU TIME=          0.0 (      0.0 MIN)
 TOTAL WALL CLOCK TIME=          0.1 SECONDS, CPU UTILIZATION IS    80.00%

          -------------
          GUESS OPTIONS
          -------------
          GUESS =MOREAD            NORB  =      29          NORDER=       0
          MIX   =       F          PRTMO =       F          PUNMO =       F
          TOLZ  = 1.0E-08          TOLE  = 1.0E-05
          SYMDEN=       F          PURIFY=       T

 INITIAL GUESS ORBITALS GENERATED BY MOREAD   ROUTINE.

 STATISTICS FOR GENERATION OF SYMMETRY ORBITAL -Q- MATRIX
 NUMBER OF CARTESIAN ATOMIC ORBITALS=         30
 NUMBER OF SPHERICAL CONTAMINANTS DROPPED=     1
 NUMBER OF LINEARLY DEPENDENT MOS DROPPED=     0
 TOTAL NUMBER OF MOS IN VARIATION SPACE=      29
 ORBITAL PURIFICATION WILL OCCUR

 SYMMETRIES FOR INITIAL GUESS ORBITALS FOLLOW.   BOTH SET(S).
     5 ORBITALS ARE OCCUPIED (    1 CORE ORBITALS).
     1=A        2=A        3=A        4=A        5=A        6=A        7=A   
     8=A        9=A       10=A       11=A       12=A       13=A       14=A   
    15=A       16=A       17=A       18=A       19=A       20=A       21=A   
    22=A       23=A       24=A       25=A       26=A       27=A       28=A   
    29=A   
 ...... END OF INITIAL ORBITAL SELECTION ......
 CPU     0: STEP CPU TIME=     0.01 TOTAL CPU TIME=          0.0 (      0.0 MIN)
 TOTAL WALL CLOCK TIME=          0.1 SECONDS, CPU UTILIZATION IS    83.33%

                    ----------------------
                    AO INTEGRAL TECHNOLOGY
                    ----------------------
     S,P,L SHELL ROTATED AXIS INTEGRALS, REPROGRAMMED BY
        KAZUYA ISHIMURA (IMS) AND JOSE SIERRA (SYNSTAR).
     S,P,D,L SHELL ROTATED AXIS INTEGRALS PROGRAMMED BY
        KAZUYA ISHIMURA (INSTITUTE FOR MOLECULAR SCIENCE).
     S,P,D,F,G SHELL TO TOTAL QUARTET ANGULAR MOMENTUM SUM 5,
        ERIC PROGRAM BY GRAHAM FLETCHER (ELORET AND NASA ADVANCED
        SUPERCOMPUTING DIVISION, AMES RESEARCH CENTER).
     S,P,D,F,G,L SHELL GENERAL RYS QUADRATURE PROGRAMMED BY
        MICHEL DUPUIS (PACIFIC NORTHWEST NATIONAL LABORATORY).

          --------------------
          2 ELECTRON INTEGRALS
          --------------------

 DIRECT SCF METHOD SKIPS INTEGRAL STORAGE ON DISK.
 DIRECT TRANSFORMATION SKIPS AO INTEGRAL STORAGE ON DISK.
  ...... END OF TWO-ELECTRON INTEGRALS .....
 STEP CPU TIME =     0.02 TOTAL CPU TIME =          0.1 (      0.0 MIN)
 TOTAL WALL CLOCK TIME=          0.1 SECONDS, CPU UTILIZATION IS    87.50%
 DDI: Creating Array [0] - 900 x 36 = 32400 words.
 DDI: Creating Array [1] - 21 x 288 = 6048 words.
 DDI: Creating Array [2] - 36 x 36 = 1296 words.
 DDI: Creating Array [3] - 465 x 36 = 16740 words.

          -----------------
          MCSCF CALCULATION
          -----------------

 ----- NUCLEAR ENERGY ----- =        10.8819736403

     -------------------------------------------------
     GMC-PT/GMC-QDPT or general MCSCF input parameters
     -------------------------------------------------
 # of frozen core orbs. =         0 ->         0
 # of doubly occ. orbs. =         1
 # of active      orbs. =         7
 # of virtual     orbs. =        21
 # of active electrons  =         7
 # of states in CI      =         3
 Highest state in CI    =         3
 kstate =  1 1 1
 avecoe =  0.333 0.333 0.333
 State symmetry           = A           
 Assigned symmetry number = 1

 <<<Act. MO sym.: 1111111

 <<<Division of 1-ext.:  0
 <<<Division of 2-ext.:  0

 *** Reference space

 Reference type: ORMAS (= Occupation restricted multiple active space)
 # of orbitals          =  7
 # of minimum electrons =  7
 # of maximum electrons =  7
 State symmetry    =    1 (input)
 2*Sz              =    1 (input)
 Spin multiplicity =    2 (input)
 Dimension of reference space =      1225  (from      3432 walks)

 Dimension of reference space =      1225  (from      1225 walks)

 <<<Ionized spaces for Ref-CI:
      0:         1225 /   -1-0:         1960 /  0-1-0:         2891

 EVALUATING EXCHANGE INTEGRALS FOR DIRECT INTEGRAL TRANSFORMATION
 SCHWARZ INEQUALITY OVERHEAD:       465 INTEGRALS, T=        0.00

     --------------------------------------------
     PARTIAL TWO ELECTRON INTEGRAL TRANSFORMATION
     --------------------------------------------

 NUMBER OF CORE MOLECULAR ORBITALS     =    1
 NUMBER OF OCCUPIED MOLECULAR ORBITALS =    8
 TOTAL NUMBER OF MOLECULAR ORBITALS    =   29
 TOTAL NUMBER OF ATOMIC ORBITALS       =   30
 THRESHOLD FOR KEEPING TRANSFORMED 2E- INTEGRALS = 1.000E-09

 -------------------------------     ------------------------------
 DISTRIBUTED DATA TRANSFORMATION     PROGRAM WRITTEN BY G. FLETCHER
 -------------------------------     ------------------------------

 THE DISTRIBUTED MEMORY REQUIRED FOR THIS STEP IS MEMDDI=         1 MWORDS
 CREATING DISTRIBUTED STORAGE FOR [VIR OCC|VIR OCC] INTEGRALS
 CREATING DISTRIBUTED STORAGE FOR [VIR OCC|OCC OCC] INTEGRALS
 CREATING DISTRIBUTED STORAGE FOR [OCC OCC|OCC OCC] INTEGRALS
 CREATING DISTRIBUTED STORAGE FOR [VIR VIR|OCC OCC] INTEGRALS
 FOR    1 PROCESSORS, THE REPLICATED MEMORY NEEDED IS       73700 WORDS.
 SCHWARZ INEQUALITY OVERHEAD:       465 INTEGRALS, T=        0.00

      DIRECT 4-INDEX TRANSFORMATION 
      SCHWARZ INEQUALITY TEST SKIPPED          0 INTEGRAL BLOCKS
 ----- FROZEN CORE ENERGY =       -47.5526732334
 ... END OF INTEGRAL TRANSFORMATION ...
 CPU     0: STEP CPU TIME=     0.21 TOTAL CPU TIME=          0.3 (      0.0 MIN)
 TOTAL WALL CLOCK TIME=          0.3 SECONDS, CPU UTILIZATION IS    93.33%

     --------------------------------     -----------------------------
     MCHF NEWTON-RAPHSON OPTIMIZATION     CODE WRITTEN BY MICHEL DUPUIS
     --------------------------------     -----------------------------
     PARALLEL VERSION WRITTEN BY G. FLETCHER (ELORET)
     NASA ADVANCED SUPERCOMPUTING DIVISION, AMES RESEARCH CENTER

 NUMBER OF INDEPENDENT ORBITAL ROTATION PARAMETERS =   175
 ..... DONE SOLVING NEWTON-RAPHSON EQUATIONS .....
 CPU     0: STEP CPU TIME=     0.83 TOTAL CPU TIME=          1.1 (      0.0 MIN)
 TOTAL WALL CLOCK TIME=          1.1 SECONDS, CPU UTILIZATION IS    99.11%
 ..... DONE WITH NTN-RPH ORBITAL ROTATIONS ..... 
 CPU     0: STEP CPU TIME=     0.00 TOTAL CPU TIME=          1.1 (      0.0 MIN)
 TOTAL WALL CLOCK TIME=          1.1 SECONDS, CPU UTILIZATION IS    99.11%
 MAXIMUM MEMORY USED BY NTN-RPH CODE WAS     57645 WORDS.

 ITER     TOTAL ENERGY      DEL(E)  LAGRANGIAN ASYMMETRY   SQCDF  MICIT   DAMP
   1      -55.564979308 -0.564979308  0.154137   10    4 9.234E-02  1   0.0000
   2      -55.632532298 -0.067552990  0.019944   12    5 4.586E-01  1   0.0000
   3      -55.669884958 -0.037352660  0.014603   11    6 2.359E-01  1   0.0165
   4      -55.687431634 -0.017546675  0.005116   11    6 5.054E-02  1   0.0066
   5      -55.690028675 -0.002597041  0.001061   14    5 1.615E-03  1   0.0000
   6      -55.690125726 -0.000097051  0.000474   14    5 1.612E-04  1   0.0000
   7      -55.690138081 -0.000012355  0.000216   14    5 3.613E-05  1   0.0000
   8      -55.690140879 -0.000002799  0.000106   22    5 9.566E-06  1   0.0000
   9      -55.690141604 -0.000000725  0.000056   22    5 2.760E-06  1   0.0000
  10      -55.690141807 -0.000000203  0.000031   22    5 8.446E-07  1   0.0000
  11      -55.690141867 -0.000000060  0.000017   22    5 2.706E-07  1   0.0000
  12      -55.690141886 -0.000000019  0.000010   22    5 9.006E-08  1   0.0000
  13      -55.690141892 -0.000000006  0.000005   22    5 3.096E-08  1   0.0000
  14      -55.690141894 -0.000000002  0.000003   22    5 1.098E-08  1   0.0000
  15      -55.690141895 -0.000000001  0.000002   22    5 3.961E-09  1   0.0000
  16      -55.690141895 -0.000000000  0.000001   12    7 1.455E-09  1   0.0000
  17      -55.690141895 -0.000000000  0.000001   12    7 5.367E-10  1   0.0000

          --------------------
          LAGRANGIAN CONVERGED
          --------------------

 FINAL MCSCF ENERGY IS      -55.6901418951 AFTER  17 ITERATIONS

 -MCCI- BASED ON OPTIMIZED ORBITALS
 ----------------------------------

 PLEASE NOTE: IF THE ACTIVE ORBITALS ARE CANONICALIZED BELOW,
 THE FOLLOWING CI EXPANSION COEFFICIENTS AND THE DENSITY DO NOT
 CORRESPOND TO THE PRINTED ORBITALS.  THE PRINTED EXPANSIONS MATCH
 THE ORBITALS USED DURING THE LAST ITERATION.  IF YOU WISH TO SEE
 CI EXPANSIONS BASED ON THE CANONICAL (OR NATURAL) ORBITALS, YOU
 MUST RUN A CI CALCULATION WITH THAT ORBITAL CHOICE READ IN $VEC.

 Averaged energy =     -55.690141895

 State #    1  Energy =     -55.825859977  S =  0.500

      Det      Coef    Occupancy (Ignoring core)
      ---      ----    --------- --------- -----
        1   -0.874726  11110001110000
        5    0.073711  01111001110000
        8    0.124279  10110101110000
       17    0.149470  11010011110000
       36    0.310148  11110001101000
       71   -0.143751  11110001011000
      211   -0.053535  11110000110100
      386   -0.099885  11110001010010
      701   -0.099806  11110001100001
      717   -0.070590  11010011100001

 State #    2  Energy =     -55.724121423  S =  0.500

      Det      Coef    Occupancy (Ignoring core)
      ---      ----    --------- --------- -----
        1   -0.311289  11110001110000
       17    0.050469  11010011110000
       36   -0.892197  11110001101000
       38    0.066232  11011001101000
       39   -0.057560  10111001101000
       40    0.072291  01111001101000
       43    0.098729  10110101101000
       52    0.126532  11010011101000
      281   -0.054018  11110000101100
      456   -0.088299  11110001001010
      463   -0.050057  10110101001010
      701   -0.079137  11110001100001

 State #    3  Energy =     -55.520444286  S =  0.500

      Det      Coef    Occupancy (Ignoring core)
      ---      ----    --------- --------- -----
        1   -0.122966  11110001110000
       36    0.093771  11110001101000
       71    0.937502  11110001011000
       78   -0.062813  10110101011000
       87   -0.098854  11010011011000
      122    0.052811  11010010111000
      246   -0.054822  11110001001100
      316    0.083971  11110000011100
      806   -0.118374  11110001001001
      822   -0.080375  11010011001001

 DENSITY MATRIX OVER ACTIVE MO-S

             1           2           3           4           5

    1    1.9708626
    2   -0.0142008   1.6337007
    3   -0.0255475  -0.0042917   1.6092251
    4   -0.0022585  -0.0020727  -0.0095099   1.6476686
    5    0.1137799   0.0552213   0.0796782  -0.0016922   0.0439291
    6    0.0056537  -0.1487841  -0.0282600  -0.0501908  -0.0044103
    7    0.0173477   0.0036991   0.1878204   0.0682064   0.0160230

             6           7

    6    0.0367772
    7   -0.0082014   0.0578368

 FORMING THE "STANDARD FOCK OPERATOR" IN DIRECT AO INTEGRAL MODE...
 ONLY THE    1 CORE AND   21 VIRTUAL ORBITALS WILL BE CANONICALIZED

          ----------------------
          MCSCF NATURAL ORBITALS
          ----------------------

                      1          2          3          4          5
                  -15.9797     1.9792     1.6537     1.6476     1.6353
                     A          A          A          A          A   
    1  N  1  S    1.001032   0.009173  -0.007585   0.004794   0.002845
    2  N  1  S   -0.001981   0.432711  -0.118903   0.154306   0.050817
    3  N  1  S   -0.006356   0.339656  -0.206971   0.213912   0.080586
    4  N  1  X    0.000129  -0.031363   0.290046   0.361461   0.000808
    5  N  1  Y   -0.000177  -0.041490   0.032090   0.022759   0.551188
    6  N  1  Z    0.001116   0.081173   0.513108  -0.269672   0.034203
    7  N  1  X    0.000088  -0.009708   0.147421   0.114589   0.013383
    8  N  1  Y    0.000040  -0.004537   0.047069   0.017004   0.326248
    9  N  1  Z   -0.000593   0.017317   0.353600  -0.156300   0.048449
   10  N  1 XX    0.000338   0.004239  -0.007948   0.007567   0.005720
   11  N  1 YY   -0.000185  -0.003516  -0.011507   0.003900  -0.007240
   12  N  1 ZZ   -0.000153  -0.000723   0.019455  -0.011468   0.001520
   13  N  1 XY   -0.000076  -0.001827  -0.004058  -0.007479  -0.012503
   14  N  1 XZ   -0.000045  -0.003550   0.008422   0.017593   0.000122
   15  N  1 YZ   -0.000105  -0.001191  -0.003017   0.004255   0.023020
   16  H  2  S   -0.001212   0.158538  -0.023461  -0.235492   0.265381
   17  H  2  S    0.000291  -0.000930   0.013958  -0.031435   0.113599
   18  H  2  X   -0.000546   0.023546  -0.000382  -0.019454   0.031140
   19  H  2  Y    0.000299  -0.013704   0.004884   0.024281   0.001893
   20  H  2  Z    0.000311  -0.006012   0.023346  -0.002826  -0.006868
   21  H  3  S   -0.001629   0.211301   0.026926  -0.292096  -0.251244
   22  H  3  S    0.000285   0.009666   0.020831  -0.056089  -0.111555
   23  H  3  X   -0.000592   0.023805   0.012008  -0.004642  -0.020469
   24  H  3  Y   -0.000553   0.023107   0.007649  -0.029552   0.001152
   25  H  3  Z    0.000521  -0.017714   0.021818   0.006681   0.019685
   26  H  4  S   -0.001698   0.162327   0.258897   0.259200  -0.060025
   27  H  4  S    0.000646  -0.000465   0.047883   0.027859   0.006242
   28  H  4  X    0.000893  -0.031117  -0.026204  -0.026647   0.016144
   29  H  4  Y   -0.000266   0.006505   0.012362   0.013838   0.016014
   30  H  4  Z    0.000265  -0.002090   0.013486  -0.017437   0.002505

                      6          7          8
                    0.0368     0.0277     0.0197
                     A          A          A   
    1  N  1  S   -0.128612  -0.081460   0.126251
    2  N  1  S   -0.459813  -0.332949   0.382334
    3  N  1  S   -0.060700  -0.226375  -0.004319
    4  N  1  X    0.033601   0.438008   0.789065
    5  N  1  Y   -0.531768   0.450461  -0.335838
    6  N  1  Z   -0.303673  -0.509180   0.191636
    7  N  1  X    0.040637   0.111638   0.079617
    8  N  1  Y    0.093458  -0.010752  -0.021481
    9  N  1  Z    0.049443  -0.004164  -0.089112
   10  N  1 XX    0.052256   0.014064   0.000808
   11  N  1 YY   -0.046653  -0.015318  -0.020339
   12  N  1 ZZ   -0.005603   0.001254   0.019531
   13  N  1 XY   -0.055939   0.028164   0.032896
   14  N  1 XZ   -0.021316  -0.037641  -0.029838
   15  N  1 YZ    0.001236  -0.021379   0.032447
   16  H  2  S    0.689797   0.096182   0.310683
   17  H  2  S    0.221549  -0.054901   0.111285
   18  H  2  X    0.064804  -0.008528   0.014486
   19  H  2  Y   -0.017360  -0.038695  -0.022550
   20  H  2  Z    0.008932   0.030822   0.008123
   21  H  3  S   -0.217149   0.791373  -0.043783
   22  H  3  S   -0.155075   0.207381  -0.036737
   23  H  3  X   -0.020710   0.014970  -0.040196
   24  H  3  Y    0.023842   0.051661   0.012730
   25  H  3  Z    0.026449  -0.005868   0.003934
   26  H  4  S    0.349444   0.061184  -0.770839
   27  H  4  S    0.058193  -0.021207  -0.155458
   28  H  4  X   -0.028700  -0.018052   0.075123
   29  H  4  Y    0.022494  -0.000304  -0.019165
   30  H  4  Z   -0.001517   0.003658  -0.030301

          ------------------------
          MCSCF OPTIMIZED ORBITALS
          ------------------------

                      1          2          3          4          5
                  -15.9797     0.0000     0.0000     0.0000     0.0000
                     A          A          A          A          A   
    1  N  1  S    1.001032  -0.001182  -0.014364  -0.009252  -0.011939
    2  N  1  S   -0.001981   0.397812   0.011311   0.001069  -0.187279
    3  N  1  S   -0.006356   0.333660   0.065453   0.085690  -0.275934
    4  N  1  X    0.000129  -0.006023   0.375547   0.026067   0.045552
    5  N  1  Y   -0.000177  -0.018306  -0.004193   0.461612   0.015159
    6  N  1  Z    0.001116   0.049955  -0.005799  -0.016391   0.585603
    7  N  1  X    0.000088   0.002519   0.162096   0.025274   0.067967
    8  N  1  Y    0.000040   0.016928   0.012280   0.334911   0.052454
    9  N  1  Z   -0.000593   0.025267   0.043401   0.035027   0.389168
   10  N  1 XX    0.000338   0.007520   0.003120   0.012071  -0.009215
   11  N  1 YY   -0.000185  -0.006474  -0.000677  -0.011647  -0.012842
   12  N  1 ZZ   -0.000153  -0.001046  -0.002443  -0.000424   0.022056
   13  N  1 XY   -0.000076  -0.004735  -0.012205  -0.020954  -0.003868
   14  N  1 XZ   -0.000045  -0.004824   0.022083   0.000952  -0.000101
   15  N  1 YZ   -0.000105  -0.001100  -0.002607   0.024327  -0.003229
   16  H  2  S   -0.001212   0.195254  -0.255331   0.310476   0.121547
   17  H  2  S    0.000291   0.010997  -0.034193   0.138570   0.040709
   18  H  2  X   -0.000546   0.026922  -0.020056   0.035771   0.012854
   19  H  2  Y    0.000299  -0.014660   0.025732   0.004509  -0.006268
   20  H  2  Z    0.000311  -0.004494   0.008915  -0.007011   0.020316
   21  H  3  S   -0.001629   0.208791  -0.234907  -0.349343   0.116951
   22  H  3  S    0.000285   0.003569  -0.031772  -0.144202   0.027734
   23  H  3  X   -0.000592   0.022872   0.005942  -0.025294   0.010959
   24  H  3  Y   -0.000553   0.025157  -0.023815  -0.002403   0.019707
   25  H  3  Z    0.000521  -0.015062   0.015662   0.024455   0.017729
   26  H  4  S   -0.001698   0.199762   0.430577  -0.004319   0.114540
   27  H  4  S    0.000646   0.005467   0.063255   0.016433   0.033335
   28  H  4  X    0.000893  -0.034460  -0.043752   0.012429  -0.010095
   29  H  4  Y   -0.000266   0.009201   0.018668   0.019503   0.005721
   30  H  4  Z    0.000265  -0.001806  -0.005829   0.000301   0.020715

                      6          7          8          9         10
                    0.0000     0.0000     0.0000     0.1264     0.2023
                     A          A          A          A          A   
    1  N  1  S    0.176826   0.086355   0.011323  -0.097226   0.034188
    2  N  1  S    0.669833   0.229572   0.037342  -0.141406   0.037793
    3  N  1  S    0.223691  -0.093799  -0.086448   1.068189  -0.449346
    4  N  1  X   -0.091314   0.937433   0.020568   0.039395   0.148738
    5  N  1  Y   -0.031917  -0.103917   0.824665   0.028232  -0.075685
    6  N  1  Z    0.612424   0.001220  -0.105711  -0.135119   0.050592
    7  N  1  X   -0.075311   0.134063   0.020148  -0.226080  -0.761390
    8  N  1  Y   -0.041937  -0.018329  -0.028731  -0.091568   0.225943
    9  N  1  Z   -0.050435  -0.068746   0.006496   0.323075  -0.051142
   10  N  1 XX   -0.043151   0.004818  -0.030301   0.077914  -0.057192
   11  N  1 YY    0.034980  -0.023966   0.029939  -0.043024   0.021275
   12  N  1 ZZ    0.008171   0.019148   0.000362  -0.034890   0.035916
   13  N  1 XY    0.025057   0.041787   0.047298  -0.010735   0.046948
   14  N  1 XZ    0.032547  -0.039735   0.002136  -0.060621  -0.080593
   15  N  1 YZ    0.024317   0.021463  -0.020193  -0.031049   0.020135
   16  H  2  S   -0.419747   0.287342  -0.509826   0.443146   0.199156
   17  H  2  S   -0.071187   0.073991  -0.214196  -0.882936  -0.656738
   18  H  2  X   -0.030342   0.006955  -0.053330  -0.061090  -0.036198
   19  H  2  Y    0.032430  -0.033337  -0.003493  -0.030455  -0.000718
   20  H  2  Z   -0.025463   0.020808   0.009444   0.041275   0.059786
   21  H  3  S   -0.433272   0.257279   0.617049   0.363113   0.165860
   22  H  3  S   -0.060074   0.049188   0.236450  -0.918097  -0.528134
   23  H  3  X   -0.007715  -0.030026   0.033774  -0.109359  -0.006662
   24  H  3  Y   -0.047747   0.029847   0.010084   0.008106  -0.000661
   25  H  3  Z   -0.011490   0.002885  -0.021131   0.056775   0.034837
   26  H  4  S   -0.465423  -0.655093  -0.002677   0.278678  -0.555099
   27  H  4  S   -0.064326  -0.146542  -0.009296  -0.470726   1.931065
   28  H  4  X    0.049886   0.058967  -0.009745   0.066070  -0.120841
   29  H  4  Y   -0.017937  -0.016299  -0.009099   0.003583   0.047570
   30  H  4  Z   -0.010376  -0.026312   0.012803  -0.025328  -0.064513

                     11         12         13         14         15
                    0.2609     0.5283     0.5861     0.6957     0.8574
                     A          A          A          A          A   
    1  N  1  S    0.016355  -0.101067   0.024229   0.052203  -0.517719
    2  N  1  S    0.039523  -0.147962  -0.056874   0.110442  -1.168956
    3  N  1  S   -0.100576   0.600888  -0.550597  -0.119432   1.914256
    4  N  1  X    0.043811  -0.253697  -0.154106  -0.392395   0.089365
    5  N  1  Y   -0.042113  -0.498828  -0.389253   0.300460   0.016225
    6  N  1  Z    0.014022  -0.538398   0.491556   0.082109   0.281668
    7  N  1  X   -0.130308   0.572710   0.644627   1.653868  -0.085840
    8  N  1  Y    0.464409   0.721508   0.973952  -0.775369  -0.048539
    9  N  1  Z   -0.102813   0.651654  -0.973287  -0.278231  -0.201981
   10  N  1 XX    0.019464  -0.024899   0.054881  -0.034785  -0.095800
   11  N  1 YY   -0.008667   0.001521  -0.034532   0.002915   0.084903
   12  N  1 ZZ   -0.010797   0.023378  -0.020349   0.031871   0.010897
   13  N  1 XY   -0.080981  -0.008521   0.019274  -0.055505  -0.085121
   14  N  1 XZ    0.013925  -0.004528  -0.002696  -0.090333  -0.006498
   15  N  1 YZ    0.058977   0.002147  -0.003285   0.051739  -0.055667
   16  H  2  S    0.581382  -0.235755   0.102587   0.597365   0.050625
   17  H  2  S   -1.996958  -0.344866  -0.395584   0.542231  -0.346014
   18  H  2  X   -0.029236   0.029578   0.015580   0.236024   0.047192
   19  H  2  Y    0.083186   0.062553  -0.131241  -0.047132   0.321700
   20  H  2  Z   -0.006183   0.107411  -0.026306   0.169739   0.040943
   21  H  3  S   -0.636196   0.065598   0.661923   0.095156   0.057180
   22  H  3  S    2.185272   0.414253   0.833715   0.039489  -0.263476
   23  H  3  X    0.020856   0.090884   0.038959   0.083584   0.177075
   24  H  3  Y    0.091828   0.002440   0.120204   0.185313  -0.226525
   25  H  3  Z   -0.039427   0.036455  -0.122960   0.080876   0.189106
   26  H  4  S    0.119602  -0.426864   0.254977  -0.609267  -0.139141
   27  H  4  S   -0.234898  -0.321122  -0.310872  -0.542861  -0.446979
   28  H  4  X   -0.028909   0.049984   0.055431   0.150311   0.010835
   29  H  4  Y   -0.022355  -0.020297   0.086008  -0.127686  -0.212513
   30  H  4  Z    0.001138   0.029265  -0.061489  -0.159647   0.106725

                     16         17         18         19         20
                    1.0513     1.0689     1.2061     1.2978     1.4056
                     A          A          A          A          A   
    1  N  1  S   -0.001348  -0.434497   0.104191  -0.225211  -0.316781
    2  N  1  S   -0.011734  -0.907660   0.224109  -0.483495  -0.683339
    3  N  1  S    0.061196   1.850145  -0.414752   0.824041   1.047488
    4  N  1  X   -0.173283  -0.077335  -0.201572   0.006751   0.033141
    5  N  1  Y    0.087596   0.108177   0.070441  -0.055550   0.001043
    6  N  1  Z   -0.052496   0.057027  -0.029355  -0.015689  -0.080295
    7  N  1  X    0.920019   0.315380   0.934442   0.313536  -0.179184
    8  N  1  Y   -0.254862  -0.558861   0.008317   0.236779  -0.345414
    9  N  1  Z    0.281416   0.193296  -0.250918   0.341135   0.570168
   10  N  1 XX    0.074616   0.042253  -0.003108  -0.027114   0.121497
   11  N  1 YY    0.176504  -0.139556  -0.051013   0.164117  -0.150114
   12  N  1 ZZ   -0.251120   0.097303   0.054121  -0.137002   0.028617
   13  N  1 XY    0.087837   0.159394  -0.071032  -0.042000  -0.037403
   14  N  1 XZ    0.001659   0.098176   0.057241  -0.025063  -0.008238
   15  N  1 YZ    0.049688   0.141968  -0.289601   0.036672   0.089543
   16  H  2  S    0.500441  -0.029612   0.485707  -0.240510  -0.347589
   17  H  2  S    0.089209  -0.003686   0.066273   0.022744   0.168976
   18  H  2  X   -0.090838  -0.238813  -0.423949  -0.046522   0.007369
   19  H  2  Y    0.188120  -0.217863  -0.213600  -0.336491  -0.196590
   20  H  2  Z   -0.338011   0.195045  -0.444287  -0.112030  -0.632605
   21  H  3  S    0.157620  -0.453361   0.244506  -0.132725  -0.383639
   22  H  3  S    0.002198  -0.273693   0.152302  -0.049643  -0.258451
   23  H  3  X   -0.031238  -0.233777   0.284457  -0.442310   0.049158
   24  H  3  Y   -0.381708   0.112657   0.105573   0.071386   0.103839
   25  H  3  Z   -0.516835  -0.112493   0.157370  -0.318593   0.352503
   26  H  4  S   -0.438184  -0.486274  -0.349970  -0.281636  -0.285324
   27  H  4  S   -0.253242  -0.412470  -0.145416  -0.153734  -0.061807
   28  H  4  X    0.122177   0.152418  -0.207015  -0.210358   0.058051
   29  H  4  Y    0.172548   0.352576  -0.144613  -0.682888   0.244337
   30  H  4  Z   -0.101076   0.355586   0.412068  -0.087700  -0.571431

                     21         22         23         24         25
                    1.5929     1.7163     1.8442     1.9923     2.0985
                     A          A          A          A          A   
    1  N  1  S   -0.110567  -0.131211   0.096794   0.033074  -0.060737
    2  N  1  S   -0.181896  -0.381510   0.218852   0.058471  -0.131518
    3  N  1  S    0.751132  -0.532113   0.163464  -0.102433   0.005548
    4  N  1  X    0.119483   0.337083   0.498783   0.085957  -0.072163
    5  N  1  Y    0.061765   0.175440  -0.134492  -0.082380   0.130096
    6  N  1  Z    0.005613  -0.241931  -0.017433   0.017314  -0.051360
    7  N  1  X   -0.743155  -0.062820   0.449950  -0.051099  -0.043286
    8  N  1  Y    0.378311   0.009746  -0.104920  -0.168719  -0.101276
    9  N  1  Z    0.364083  -0.155617   0.020122  -0.229864  -0.079839
   10  N  1 XX   -0.029092   0.134251  -0.158412  -0.103831   0.167014
   11  N  1 YY    0.088425  -0.042440   0.017685   0.847562   0.196858
   12  N  1 ZZ   -0.059333  -0.091811   0.140727  -0.743731  -0.363872
   13  N  1 XY    0.131673   0.025798   0.035472  -0.044569   0.426562
   14  N  1 XZ    0.034649  -0.135170  -0.203219   0.090481   0.050387
   15  N  1 YZ   -0.102409  -0.268354   0.188773   0.050820   0.065814
   16  H  2  S   -0.238030  -0.034581   0.041995   0.128584  -0.291984
   17  H  2  S   -0.548387   0.209423   0.108422   0.217893  -0.306783
   18  H  2  X   -0.727054   0.524869   0.151425   0.154326  -0.136675
   19  H  2  Y   -0.113624  -0.203847   0.015574  -0.492860   0.916445
   20  H  2  Z    0.357276   0.031304  -0.494629   0.088831  -0.175371
   21  H  3  S   -0.412240  -0.117198   0.047670  -0.121348   0.261738
   22  H  3  S    0.235292   0.326197   0.236597  -0.174034   0.317559
   23  H  3  X    0.406426   0.647293   0.046942   0.159237  -0.162100
   24  H  3  Y    0.036568   0.269615   0.228058  -0.012985   1.017898
   25  H  3  Z   -0.098645  -0.560452  -0.098144   0.458001   0.134559
   26  H  4  S    0.249675   0.087893  -0.132736   0.020031   0.064119
   27  H  4  S   -0.064761   0.044473  -0.531207   0.020004   0.005434
   28  H  4  X    0.371514  -0.219432   0.920086   0.119031  -0.224869
   29  H  4  Y   -0.237384   0.104505  -0.291559   0.290377  -0.088047
   30  H  4  Z   -0.514597   0.124062   0.427992   0.224842   0.014626

                     26         27         28         29
                    2.2512     2.4706     2.6444     3.0352
                     A          A          A          A   
    1  N  1  S   -0.121276  -0.026435  -0.166599  -0.096913
    2  N  1  S   -0.212379  -0.101266  -0.189141  -0.085898
    3  N  1  S    0.700675  -0.703840   1.875727   1.312374
    4  N  1  X   -0.018171  -0.264287  -0.218857   0.342543
    5  N  1  Y    0.021525   0.195091  -0.181852   0.078773
    6  N  1  Z    0.011122  -0.114009   0.256651   0.062845
    7  N  1  X   -0.096062  -0.900328  -0.904726   0.523913
    8  N  1  Y   -0.420505   0.604087  -0.354508   0.077719
    9  N  1  Z    0.389807  -0.174906   0.582436   0.107452
   10  N  1 XX   -0.516591  -0.410703   0.592863   1.037768
   11  N  1 YY    0.338279   0.248500  -0.231010  -0.421086
   12  N  1 ZZ    0.178312   0.162203  -0.361853  -0.616682
   13  N  1 XY   -0.495682  -0.343578   0.293236  -1.089527
   14  N  1 XZ   -0.100122  -0.738941  -1.022479   0.221460
   15  N  1 YZ   -0.649170   0.659448  -0.457773   0.235689
   16  H  2  S   -0.276260  -0.526357  -0.525970  -0.670325
   17  H  2  S   -0.075479  -0.370944  -0.101517  -0.172123
   18  H  2  X   -0.115819  -0.633818  -0.315474  -0.626326
   19  H  2  Y    0.321489   0.146327   0.079715   0.424499
   20  H  2  Z   -0.043076   0.051834   0.201987   0.351390
   21  H  3  S   -0.215328   0.328645  -1.257653   0.536797
   22  H  3  S   -0.079205   0.231533  -0.517045   0.118856
   23  H  3  X   -0.609424   0.347475  -0.639222   0.267898
   24  H  3  Y    0.398477   0.186541  -0.622280   0.388762
   25  H  3  Z   -0.226497  -0.240006   0.623948  -0.299147
   26  H  4  S   -0.156644   0.916533  -0.142109  -1.200451
   27  H  4  S   -0.071607   0.410078   0.041139  -0.349288
   28  H  4  X    0.258077  -0.766076   0.128978   0.927060
   29  H  4  Y    0.530754   0.351203  -0.014992  -0.232838
   30  H  4  Z   -0.209224   0.097758   0.223510   0.367127
 .....DONE WITH MCSCF ITERATIONS.....
 CPU     0: STEP CPU TIME=    11.39 TOTAL CPU TIME=         12.5 (      0.2 MIN)
 TOTAL WALL CLOCK TIME=         12.5 SECONDS, CPU UTILIZATION IS    99.92%

     ----------------------------------------------------------------
     PROPERTY VALUES FOR THE MCSCF SELF-CONSISTENT FIELD WAVEFUNCTION
     ----------------------------------------------------------------

          -----------------
          ENERGY COMPONENTS
          -----------------

         WAVEFUNCTION NORMALIZATION =       1.0000000000

                ONE ELECTRON ENERGY =     -93.3584212612
                TWO ELECTRON ENERGY =      26.7863057258
           NUCLEAR REPULSION ENERGY =      10.8819736403
                                      ------------------
                       TOTAL ENERGY =     -55.6901418951

 ELECTRON-ELECTRON POTENTIAL ENERGY =      26.7863057258
  NUCLEUS-ELECTRON POTENTIAL ENERGY =    -148.9810702816
   NUCLEUS-NUCLEUS POTENTIAL ENERGY =      10.8819736403
                                      ------------------
             TOTAL POTENTIAL ENERGY =    -111.3127909155
               TOTAL KINETIC ENERGY =      55.6226490204
                 VIRIAL RATIO (V/T) =       2.0012134063

          ---------------------------------------
          MULLIKEN AND LOWDIN POPULATION ANALYSES
          ---------------------------------------

     ATOMIC MULLIKEN POPULATION IN EACH MOLECULAR ORBITAL

                      1          2          3          4          5

                  2.000000   1.979193   1.653655   1.647647   1.635259

    1             2.000531   1.372744   1.429012   0.942573   1.210953
    2            -0.000091   0.162876   0.010596   0.192548   0.233673
    3            -0.000222   0.279317   0.011351   0.266966   0.171119
    4            -0.000218   0.164255   0.202696   0.245560   0.019514

                      6          7          8

                  0.036845   0.027731   0.019670

    1             0.015366   0.014480   0.010612
    2             0.016560   0.000358   0.001202
    3             0.000958   0.012904   0.000100
    4             0.003962  -0.000011   0.007756
 WARNING! MCSCF POPULATIONS SHOWN ABOVE ARE FOR THE NATURAL ORBITALS.
 IGNORE THE ABOVE DATA FOR MCSCF FUNCTIONS WHICH ARE NOT OF -FORS- TYPE.
 THE FOLLOWING POPULATIONS ARE CORRECT FOR ANY MCSCF WAVEFUNCTION.

               ----- POPULATIONS IN EACH AO -----
                             MULLIKEN      LOWDIN
              1  N  1  S      2.00216     1.90558
              2  N  1  S      0.81724     0.58100
              3  N  1  S      0.72406     0.42247
              4  N  1  X      0.61272     0.53303
              5  N  1  Y      0.76256     0.70817
              6  N  1  Z      0.83991     0.79268
              7  N  1  X      0.25105     0.38265
              8  N  1  Y      0.44614     0.50046
              9  N  1  Z      0.52480     0.56437
             10  N  1 XX      0.00054     0.18859
             11  N  1 YY      0.00172     0.15261
             12  N  1 ZZ      0.00388     0.14529
             13  N  1 XY      0.00548     0.00944
             14  N  1 XZ      0.00401     0.01197
             15  N  1 YZ      0.00000     0.00597
             16  H  2  S      0.50608     0.38737
             17  H  2  S      0.06197     0.15522
             18  H  2  X      0.02420     0.03851
             19  H  2  Y      0.01473     0.04088
             20  H  2  Z      0.01075     0.02443
             21  H  3  S      0.62105     0.47325
             22  H  3  S      0.06254     0.15412
             23  H  3  X      0.01803     0.03335
             24  H  3  Y      0.02187     0.05170
             25  H  3  Z      0.01900     0.03890
             26  H  4  S      0.55646     0.43591
             27  H  4  S      0.03218     0.15027
             28  H  4  X      0.03410     0.05862
             29  H  4  Y      0.01085     0.02611
             30  H  4  Z      0.00993     0.02708

          ----- MULLIKEN ATOMIC OVERLAP POPULATIONS -----
          (OFF-DIAGONAL ELEMENTS NEED TO BE MULTIPLIED BY 2)

             1           2           3           4

    1    6.2185415
    2    0.2302524   0.3996211
    3    0.2507861  -0.0069665   0.5025616
    4    0.2966902  -0.0051842  -0.0038884   0.3558965

          TOTAL MULLIKEN AND LOWDIN ATOMIC POPULATIONS
       ATOM         MULL.POP.    CHARGE          LOW.POP.     CHARGE
    1 N             6.996270    0.003730         6.904271    0.095729
    2 H             0.617723    0.382277         0.646419    0.353581
    3 H             0.742493    0.257507         0.751321    0.248679
    4 H             0.643514    0.356486         0.697989    0.302011

          MULLIKEN SPHERICAL HARMONIC POPULATIONS
       ATOM           S       P       D      F      G      H      I    TOTAL
    1 N             3.54    3.44    0.02   0.00   0.00   0.00   0.00    7.00
    2 H             0.57    0.05    0.00   0.00   0.00   0.00   0.00    0.62
    3 H             0.68    0.06    0.00   0.00   0.00   0.00   0.00    0.74
    4 H             0.59    0.05    0.00   0.00   0.00   0.00   0.00    0.64

          ---------------------
          ELECTROSTATIC MOMENTS
          ---------------------

 POINT   1           X           Y           Z (BOHR)    CHARGE
                -0.000004   -0.000003   -0.177185        1.00 (A.U.)
         DX          DY          DZ         /D/  (DEBYE)
    -0.896547   -0.508516    2.153278    2.387256
 ...... END OF PROPERTY EVALUATION ......
 CPU     0: STEP CPU TIME=     0.00 TOTAL CPU TIME=         12.5 (      0.2 MIN)
 TOTAL WALL CLOCK TIME=         12.5 SECONDS, CPU UTILIZATION IS    99.84%

     -------------------------------------------------
     GMC-PT/GMC-QDPT or general MCSCF input parameters
     -------------------------------------------------
 # of frozen core orbs. =         0 ->         0
 # of doubly occ. orbs. =         1
 # of active      orbs. =         7
 # of virtual     orbs. =        21
 # of active electrons  =         7
 # of states in CI      =         3
 Highest state in CI    =         3
 kstate =  1 1 1
 avecoe =  0.333 0.333 0.333
 State symmetry           = A           
 Assigned symmetry number = 1

 <<<Act. MO sym.: 1111111

 <<<Division of 1-ext.:  0
 <<<Division of 2-ext.:  0

     ------------------------
     Orbital canonicalization
     ------------------------

 MOs are canonicalized for core, virtual, and invariant-active orbital spaces.
 This is a part of the GMC-QDPT calculation.
 SCHWARZ INEQUALITY OVERHEAD:       465 INTEGRALS, T=        0.00
 DIRECT TRANSFORMATION SKIPS AO INTEGRAL STORAGE ON DISK.

 Averaged energy =     -55.690141895

 State #    1  Energy =     -55.825859977  S =  0.500
 State #    2  Energy =     -55.724121423  S =  0.500
 State #    3  Energy =     -55.520444286  S =  0.500

 Orbital energies for filled orbital space
  -15.979677
 Orbital energies for active orbital space
   -1.482975  -0.988731  -0.786470  -0.714717   0.095482
    0.384547   0.239472
 Orbital energies for external orbital space
    0.126432   0.202341   0.260857   0.528330   0.586063
    0.695744   0.857352   1.051339   1.068899   1.206100
    1.297831   1.405559   1.592930   1.716286   1.844193
    1.992306   2.098539   2.251169   2.470557   2.644403
    3.035203

 Zero values mean non-canonical orbitals.
 ... done with orbital canonicalization ...
 CPU     0: STEP CPU TIME=     0.62 TOTAL CPU TIME=         13.1 (      0.2 MIN)
 TOTAL WALL CLOCK TIME=         13.1 SECONDS, CPU UTILIZATION IS    99.85%

     --------------------------------------------
     PARTIAL TWO ELECTRON INTEGRAL TRANSFORMATION
     --------------------------------------------

 NUMBER OF CORE MOLECULAR ORBITALS     =    0
 NUMBER OF OCCUPIED MOLECULAR ORBITALS =    8
 TOTAL NUMBER OF MOLECULAR ORBITALS    =   29
 TOTAL NUMBER OF ATOMIC ORBITALS       =   30
 THRESHOLD FOR KEEPING TRANSFORMED 2E- INTEGRALS = 1.000E-09
 AO INTEGRALS WILL BE CALCULATED IN DIRECT MODE...
 DIRECT TRANSFORMATION SKIPS AO INTEGRAL STORAGE ON DISK.
 SCHWARZ INEQUALITY OVERHEAD:       465 INTEGRALS, T=        0.00

 PLAN A: REQUIREMENTS FOR FULLY IN-MEMORY TRANSFORMATION:
 # OF WORDS AVAILABLE =            100000000
 # OF WORDS NEEDED    =               221798

 PARALLEL ONLY WORKS WITH THE SEGMENTED ALGORITHM.
 ADJUSTING MEMORY TO USE SEGMENTED ALGORITHM.


 PLAN B: REQUIREMENTS FOR THE SEGMENTED TRANSFORMATION:
       MINIMUM=         124148 WORDS FOR 1 MOLECULAR ORBITAL PER PASS
       MAXIMUM=         221798 WORDS FOR ALL MOLECULAR ORBITALS IN 1 PASS
              (          13950 EXTRA WORDS INCLUDES 1 EXTRA ORBITAL/PASS)
 THIS RUN USES=         221798 WORDS,
 DISTRIBUTING   1 PASSES EACH CONTAINING     8 ORBITALS OVER   1 PROCESSORS.

 CHOOSING SEGMENTED PARTIAL TRANSFORMATION...
 DIRECT TRANSFORMATION SKIPS AO INTEGRAL STORAGE ON DISK.
 PASS #   1 TOOK        0.03 SECONDS.
 TOTAL NUMBER OF TRANSFORMED 2E- INTEGRALS KEPT =        29226
 ... END OF INTEGRAL TRANSFORMATION ...
 CPU     0: STEP CPU TIME=     0.04 TOTAL CPU TIME=         13.2 (      0.2 MIN)
 TOTAL WALL CLOCK TIME=         13.2 SECONDS, CPU UTILIZATION IS    99.85%

     --------     ------------------------------------------
     GMC-QDPT     Program written by H.Nakano (Kyushu Univ.)
     --------     ------------------------------------------

 *** Reference space

 Reference type: ORMAS (= Occupation restricted multiple active space)
 # of orbitals          =  7
 # of minimum electrons =  7
 # of maximum electrons =  7
 State symmetry    =    1 (input)
 2*Sz              =    1 (input)
 Spin multiplicity =    2 (input)
 Dimension of reference space =      1225  (from      3432 walks)

 Dimension of reference space =      1225  (from      1225 walks)

 <<<Ionized spaces for Ref-CI:
      0:         1225 /   -1-0:         1960 /  0-1-0:         2891

 ***                    ***
 *** Reference space CI ***
 ***                    ***

 Converged after   31 iterations

 Reference wavefunctions:

 State #    1  Energy =     -55.825859977  S =  0.500

      Det      Coef    Occupancy (Ignoring core)
      ---      ----    --------- --------- -----
        1    0.965699  11110001110000
       36    0.132004  11110001101000
      393    0.051821  10110101010010
      717    0.069717  11010011100001

 State #    2  Energy =     -55.724121423  S =  0.500

      Det      Coef    Occupancy (Ignoring core)
      ---      ----    --------- --------- -----
        1    0.136937  11110001110000
       36   -0.969365  11110001101000
      463   -0.053024  10110101001010

 State #    3  Energy =     -55.520444286  S =  0.500

      Det      Coef    Occupancy (Ignoring core)
      ---      ----    --------- --------- -----
       71    0.971442  11110001011000
      177   -0.052677  11101001010100
      822   -0.071664  11010011001001

 Davidson method: CPU/Wall time =           0.45 /           0.44 sec.

 Oscillator strength (invalid if E(1)/=E(GS)):
 -----------------------------------------
   State                        f
 -----------------------------------------
     2     F(REF-CI)=        0.0018825073
     3     F(REF-CI)=        0.0060267317
 -----------------------------------------

 Dipole moment matrix elements, x, y, z, in A.U.

 Dimension of ionized spaces for PT:
 (N-2) space:         1715 /  (N-1) space:         2842 /  N space:         2891
 (N+1) space:         2842 /  (N+2) space:         1715

 <<<Ionized spaces for internal:
         0:         1225 /      -1-0:         1960 /     0-1-0:         2891
  -1-0-1-0:         2842 / 0-1-0-1-0:         3381

 Diagonal elements of averaged one-particle density matrix:
       2       3       4       5       6       7       8
  0.9923  0.9857  0.9835  0.9890  0.0216  0.0116  0.0163
  0.9866  0.6623  0.6560  0.6600  0.0149  0.0083  0.0119

 Orbital energies:
 -------- Doubly-occupied orbitals (highest several orbs.) -------
             1
 -1.597968D+01
 -------- Active orbitals ----------------------------------------
             2            3            4            5            6
 -1.482975D+00-9.887313D-01-7.864697D-01-7.147170D-01 9.548209D-02
             7            8
  3.845475D-01 2.394721D-01
 -------- External orbitals (lowest several orbs.) ---------------
             9           10           11           12           13
  1.264318D-01 2.023411D-01 2.608575D-01 5.283295D-01 5.860626D-01
            14           15           16           17           18
  6.957436D-01 8.573525D-01 1.051339D+00 1.068899D+00 1.206100D+00

 *** Quasi-degeneracy checking

 === Det (|Ci| > 1.0D-01 and dE < 5.0D-03)

 # of small denominators (single excitations)
 State       dEmin  dE < 5.0D-03  dE < 5.0D-04  dE < 5.0D-05  dE < 5.0D-06
 ----- ----------- ------------- ------------- ------------- -------------
     1    5.00D-03             0             0             0             0
     2    5.00D-03             0             0             0             0
     3    5.00D-03             0             0             0             0

 # of small denominators (double excitations)
 State       dEmin  dE < 5.0D-03  dE < 5.0D-04  dE < 5.0D-05  dE < 5.0D-06
 ----- ----------- ------------- ------------- ------------- -------------
     1    5.00D-03             0             0             0             0
     2    5.00D-03             0             0             0             0
     3    5.00D-03             0             0             0             0

 *** Zeroth-Order Setup (Granovsky's zeroth-order vectors)
 Zeroth-order effective Hamiltonian
  (= Sum_i e(i)*<I|a+(i)a(i)|J> ):
                   1            2            3
     1 -7.120969D+00
     2 -1.668829D-02-7.069116D+00
     3  8.270475D-04 7.484668D-03-6.852674D+00

 Zeroth-order vectors:
 State #    1
       MC st            1           2           3
       Coeff    9.590D-01   2.832D-01  -1.066D-02
 State #    2
       MC st            2           1           3
       Coeff   -9.584D-01   2.834D-01   3.277D-02
 State #    3
       MC st            3           2           1
       Coeff    9.994D-01   3.445D-02   9.373D-04

 *** GMC-QDPT computation

 (Integral reading:  CPU/Wall time =           0.00 /           0.00 sec.)

 One-external:
   0 -ionized terms: CPU/Wall time =           0.03 /           0.04 sec.
 (-1)-ionized terms: CPU/Wall time =           0.08 /           0.08 sec.
 (+1)-ionized terms: CPU/Wall time =           0.03 /           0.02 sec.
 (+1)-ionized terms: CPU/Wall time =           0.00 /           0.01 sec.
 (+2)-ionized terms: CPU/Wall time =           0.01 /           0.01 sec.

 Internal:
 # of macro loops for internal contribution =         1 (input)
 Loop:    1
 Dimension of internal CISD space     =         0  (after screening)
 Space construction: CPU/Wall time =           0.01 /           0.01 sec.
 Internal terms:     CPU/Wall time =           0.00 /           0.00 sec.

 Two-external:
   0 -ionized terms: CPU/Wall time =           0.06 /           0.06 sec.
 (-1)-ionized terms: CPU/Wall time =           1.01 /           1.01 sec.
 (-2)-ionized terms: CPU/Wall time =           0.17 /           0.16 sec.

 Total time:         CPU/Wall time =           1.40 /           1.40 sec.

 ***                  ***
 *** GMC-QDPT Results ***
 ***                  ***

 Diagonal elements of effective Hamiltonian:
 Heff(  1) =   -55.91819262
 Heff(  2) =   -55.83808233
 Heff(  3) =   -55.63201257

 Off-diagonal elements of effective Hamiltonian:
                   1            2
     2 -2.465129D-02
     3 -2.904987D-03 6.168212D-03

 ******** GMC-QDPT energies ********
 ----------------------------------------------------------------------------
   State                        1st order                           2nd order
 ----------------------------------------------------------------------------
     1     E(REF-CI)=      -55.8258599766   E(GMC-QDPT2)=      -55.9251746958
     2     E(REF-CI)=      -55.7241214225   E(GMC-QDPT2)=      -55.8313314671
     3     E(REF-CI)=      -55.5204442863   E(GMC-QDPT2)=      -55.6317813542
 ----------------------------------------------------------------------------

 Excitation energies (invalid if E(1)/=E(GS)):
 ----------------------------------------------------------------------------
   State                        1st order                           2nd order
 ----------------------------------------------------------------------------

     TZ Sorted GMC-PT ENERGIES:
         1      -55.9251746958
         2      -55.8313314671
         3      -55.6317813542
     2     E(REF-CI)=        2.7684485 eV   E(GMC-QDPT2)=        2.5536056 eV
     3     E(REF-CI)=        8.3107885 eV   E(GMC-QDPT2)=        7.9836436 eV
 ----------------------------------------------------------------------------

 Main characters of perturbed GMC-QDPT states:

 State #    1  Energy =     -55.925174696  S =  0.500

      Det      Coef    Occupancy (Ignoring core)
      ---      ----    --------- --------- -----
        1    0.967227  11110001110000
       36    0.120538  11110001101000
      393    0.051859  10110101010010
      717    0.069852  11010011100001

 State #    2  Energy =     -55.831331467  S =  0.500

      Det      Coef    Occupancy (Ignoring core)
      ---      ----    --------- --------- -----
        1    0.125472  11110001110000
       36   -0.970879  11110001101000
      463   -0.053093  10110101001010

 State #    3  Energy =     -55.631781354  S =  0.500

      Det      Coef    Occupancy (Ignoring core)
      ---      ----    --------- --------- -----
       71    0.971435  11110001011000
      177   -0.052641  11101001010100
      822   -0.071631  11010011001001

 <<<Max |V/de| = 2.907D-02  Thresh = 1.000D+00

 Oscillator strength (invalid if E(1)/=E(GS)):
 ----------------------------------------------------------------------------
   State                        1st order                           2nd order
 ----------------------------------------------------------------------------
     2     F(REF-CI)=        0.0018825073     F(GMC-PT2)=        0.0018158535
     3     F(REF-CI)=        0.0060267317     F(GMC-PT2)=        0.0059024463
 ----------------------------------------------------------------------------

 Dipole moment matrix elements, x, y, z, in A.U.
States    1    1       -0.3362038319       -0.1555760504        0.6453936634
States    1    2        0.0349889025       -0.0055181645       -0.1666436912
States    1    3       -0.1510859288        0.0291503832       -0.0806231227
States    2    1        0.0349889025       -0.0055181645       -0.1666436912
States    2    2       -0.1957410240       -0.3224589890        0.3538225351
States    2    3       -0.0416020323        0.0973837432        0.0010282001
States    3    1       -0.1510859288        0.0291503832       -0.0806231227
States    3    2       -0.0416020323        0.0973837432        0.0010282001
States    3    3       -0.6087237675       -0.1781569620        0.2713619093

 Oscillator strength (valid only when positive): 
 ----------------------------------------------------------------------------
  States                        1st order                           2nd order
 ----------------------------------------------------------------------------
  1  1     F(REF-CI)=        0.0000000000     F(GMC-PT2)=        0.0000000000
  1  2     F(REF-CI)=       -0.0018825073     F(GMC-PT2)=       -0.0018158535
  1  3     F(REF-CI)=       -0.0060267317     F(GMC-PT2)=       -0.0059024463
  2  1     F(REF-CI)=        0.0018825073     F(GMC-PT2)=        0.0018158535
  2  2     F(REF-CI)=        0.0000000000     F(GMC-PT2)=        0.0000000000
  2  3     F(REF-CI)=       -0.0015571180     F(GMC-PT2)=       -0.0014920202
  3  1     F(REF-CI)=        0.0060267317     F(GMC-PT2)=        0.0059024463
  3  2     F(REF-CI)=        0.0015571180     F(GMC-PT2)=        0.0014920202
  3  3     F(REF-CI)=        0.0000000000     F(GMC-PT2)=        0.0000000000
 CPU     0: STEP CPU TIME=     1.91 TOTAL CPU TIME=         15.1 (      0.3 MIN)
 TOTAL WALL CLOCK TIME=         15.1 SECONDS, CPU UTILIZATION IS    99.87%

     !!! DIABATIZATION FOR REF CI STATES !!!

 *******************************************************
          $DMO GROUP FOUND IN THE INPUT.
        DIABATIZATION OF ADIABATIC STATES BEGINS.
     PROGRAMMED BY TAO ZENG (CARLETON UNIVERSITY).
               Email: toby.zeng@carleton.ca
     See T. Zeng, J. Chem. Phys. 2017, 146, 144103
 *******************************************************

 *************************************************************************
     STEP 1: TRANSFORMATION OF ADIABATIC STATES TO THE DMO REPRESENTATION
         See Atchity and Ruedenberg, J. Chem. Phys. 1999, 111, 2910
 *************************************************************************

Read in Diabatic Molecualr Orbitals:

                      1          2          3          4          5

    1  N  1  S    0.008609   0.000000   0.000000  -0.013219   0.279491
    2  N  1  S    0.442914  -0.000000   0.000000  -0.184329   0.867803
    3  N  1  S    0.276913   0.000000  -0.000000  -0.288315   0.144236
    4  N  1  X   -0.000000   0.493155  -0.024636  -0.000000  -0.000000
    5  N  1  Y    0.000000   0.024636   0.493155  -0.000000   0.000000
    6  N  1  Z    0.090197   0.000000   0.000000   0.593421   0.705309
    7  N  1  X   -0.000000   0.210628  -0.010522   0.000000   0.000000
    8  N  1  Y    0.000000   0.010522   0.210628  -0.000000  -0.000000
    9  N  1  Z   -0.004381   0.000000   0.000000   0.381592  -0.106092
   10  N  1 XX   -0.000457   0.010719  -0.000535  -0.012387   0.006153
   11  N  1 YY   -0.000457  -0.010719   0.000535  -0.012387   0.006153
   12  N  1 ZZ    0.000914  -0.000000   0.000000   0.024773  -0.012306
   13  N  1 XY    0.000000  -0.000618  -0.012377  -0.000000   0.000000
   14  N  1 XZ   -0.000000   0.026529  -0.001325  -0.000000   0.000000
   15  N  1 YZ    0.000000   0.001325   0.026529  -0.000000   0.000000
   16  H  2  S    0.194462  -0.176074   0.343485   0.112865  -0.523343
   17  H  2  S    0.003574  -0.023812   0.046452   0.024014  -0.054445
   18  H  2  X    0.018760   0.009101   0.022834   0.009336  -0.039151
   19  H  2  Y   -0.032493   0.022287  -0.020044  -0.016171   0.067811
   20  H  2  Z   -0.009251   0.008464  -0.016511   0.018769  -0.010566
   21  H  3  S    0.194462  -0.209430  -0.324227   0.112865  -0.523343
   22  H  3  S    0.003574  -0.028322  -0.043847   0.024014  -0.054445
   23  H  3  X    0.018760   0.006781  -0.023627   0.009336  -0.039151
   24  H  3  Y    0.032493  -0.024174  -0.017723   0.016171  -0.067811
   25  H  3  Z   -0.009251   0.010067   0.015585   0.018769  -0.010566
   26  H  4  S    0.194462   0.385503  -0.019258   0.112865  -0.523343
   27  H  4  S    0.003574   0.052134  -0.002604   0.024014  -0.054445
   28  H  4  X   -0.037519  -0.032295   0.001613  -0.018672   0.078302
   29  H  4  Y    0.000000   0.001067   0.021353  -0.000000   0.000000
   30  H  4  Z   -0.009251  -0.018530   0.000926   0.018769  -0.010566

                      6          7

    1  N  1  S    0.000000  -0.000000
    2  N  1  S    0.000000  -0.000000
    3  N  1  S   -0.000000   0.000000
    4  N  1  X   -0.930415  -0.002083
    5  N  1  Y   -0.002083   0.930415
    6  N  1  Z   -0.000000   0.000000
    7  N  1  X   -0.046866  -0.000105
    8  N  1  Y   -0.000105   0.046866
    9  N  1  Z   -0.000000   0.000000
   10  N  1 XX    0.001538   0.000003
   11  N  1 YY   -0.001538  -0.000003
   12  N  1 ZZ   -0.000000   0.000000
   13  N  1 XY   -0.000004   0.001776
   14  N  1 XZ    0.039985   0.000090
   15  N  1 YZ    0.000090  -0.039985
   16  H  2  S   -0.362630  -0.631354
   17  H  2  S   -0.065964  -0.114846
   18  H  2  X    0.002763  -0.037520
   19  H  2  Y    0.037435   0.040736
   20  H  2  Z    0.001882   0.003276
   21  H  3  S   -0.365454   0.629724
   22  H  3  S   -0.066477   0.114549
   23  H  3  X    0.002595   0.037532
   24  H  3  Y   -0.037617   0.040567
   25  H  3  Z    0.001896  -0.003268
   26  H  4  S    0.728084   0.001630
   27  H  4  S    0.132441   0.000297
   28  H  4  X   -0.062317  -0.000140
   29  H  4  Y    0.000055  -0.024345
   30  H  4  Z   -0.003778  -0.000008

NUMBER OF SUB ACTIVE SPACES:   1
ROTATE ACTIVE MOS TO DMOS IN EACH SUB-SPACE

SPACE  1:

OVERLAP BETWEEN ORTHONORMAL AND PRE-ORTHONORMAL REF. DMOS

             1           2           3           4           5

    1    0.9701938  -0.0223686  -0.0277317  -0.0103262   0.0020465
    2   -0.0223686   1.0317053  -0.0356900  -0.0402544   0.0774867
    3   -0.0277317  -0.0356900   0.8694674  -0.0273582   0.0266415
    4   -0.0103262  -0.0402544  -0.0273582   0.9929511  -0.0131419
    5    0.0020465   0.0774867   0.0266415  -0.0131419   1.1692256
    6    0.0004141   0.0548275  -0.0383852  -0.0557700   0.0542106
    7    0.0031126   0.0126482   0.0922982   0.0220686   0.0546613

             6           7

    1    0.0004141   0.0031126
    2    0.0548275   0.0126482
    3   -0.0383852   0.0922982
    4   -0.0557700   0.0220686
    5    0.0542106   0.0546613
    6    1.0609088  -0.0137806
    7   -0.0137806   1.0694007
REFERENCE DMOS AFTER ORTHONORMALIZATION:

                      1          2          3          4          5

    1  N  1  S    0.007656  -0.017869  -0.007581  -0.011416   0.241365
    2  N  1  S    0.451627  -0.050779  -0.014433  -0.175321   0.746883
    3  N  1  S    0.281658  -0.013309  -0.005186  -0.287665   0.121642
    4  N  1  X    0.010839   0.523229  -0.046159  -0.030478   0.008847
    5  N  1  Y    0.011987   0.033128   0.483463  -0.002861  -0.053375
    6  N  1  Z    0.098044  -0.019486   0.007435   0.607243   0.613027
    7  N  1  X    0.004761   0.208027  -0.005055   0.005201  -0.010992
    8  N  1  Y    0.007361   0.018871   0.241676   0.007371  -0.008174
    9  N  1  Z    0.000769   0.021134   0.017354   0.385938  -0.089097
   10  N  1 XX   -0.000410   0.009543  -0.000749  -0.012049   0.004511
   11  N  1 YY   -0.000897  -0.011285  -0.000563  -0.012986   0.005960
   12  N  1 ZZ    0.001307   0.001742   0.001312   0.025034  -0.010471
   13  N  1 XY   -0.000462  -0.001170  -0.014657  -0.000544   0.000291
   14  N  1 XZ    0.000617   0.024179   0.001282   0.003040  -0.003318
   15  N  1 YZ    0.001221   0.002995   0.035046   0.002053   0.000885
   16  H  2  S    0.215873  -0.091064   0.466426   0.116422  -0.408510
   17  H  2  S    0.005964  -0.012418   0.064429   0.024269  -0.039047
   18  H  2  X    0.020903   0.013580   0.032988   0.011727  -0.033558
   19  H  2  Y   -0.034418   0.013091  -0.028496  -0.015318   0.054456
   20  H  2  Z   -0.009664   0.008602  -0.018480   0.018536  -0.009282
   21  H  3  S    0.183526  -0.169875  -0.441224   0.058494  -0.441405
   22  H  3  S    0.001213  -0.023869  -0.064226   0.014992  -0.045951
   23  H  3  X    0.018733   0.008267  -0.028893   0.008007  -0.035318
   24  H  3  Y    0.032524  -0.017683  -0.023843   0.011797  -0.056733
   25  H  3  Z   -0.008455   0.011662   0.019720   0.019995  -0.009956
   26  H  4  S    0.213229   0.386852   0.049780   0.165188  -0.506577
   27  H  4  S    0.005438   0.049571   0.007261   0.032791  -0.055685
   28  H  4  X   -0.040030  -0.035388  -0.006236  -0.023289   0.072286
   29  H  4  Y    0.000932   0.002305   0.027422   0.001461   0.000385
   30  H  4  Z   -0.009692  -0.016799   0.000791   0.017963  -0.007669

                      6          7

    1  N  1  S   -0.012436  -0.011418
    2  N  1  S   -0.045905  -0.034618
    3  N  1  S   -0.020957  -0.000766
    4  N  1  X   -0.907971  -0.015708
    5  N  1  Y    0.027183   0.831018
    6  N  1  Z    0.001256  -0.044546
    7  N  1  X   -0.054307  -0.002381
    8  N  1  Y    0.008772   0.023100
    9  N  1  Z    0.024313  -0.004847
   10  N  1 XX    0.000065  -0.000025
   11  N  1 YY   -0.001872   0.000121
   12  N  1 ZZ    0.001807  -0.000096
   13  N  1 XY   -0.000479   0.002931
   14  N  1 XZ    0.036819   0.000267
   15  N  1 YZ    0.000733  -0.040532
   16  H  2  S   -0.301315  -0.615594
   17  H  2  S   -0.057391  -0.112068
   18  H  2  X    0.004944  -0.036616
   19  H  2  Y    0.030502   0.038422
   20  H  2  Z    0.002174   0.004705
   21  H  3  S   -0.317712   0.645674
   22  H  3  S   -0.059132   0.114215
   23  H  3  X    0.003700   0.039125
   24  H  3  Y   -0.031349   0.042359
   25  H  3  Z    0.003400  -0.004731
   26  H  4  S    0.702884   0.023574
   27  H  4  S    0.127142   0.002857
   28  H  4  X   -0.062078  -0.003071
   29  H  4  Y    0.000654  -0.025203
   30  H  4  Z   -0.001323   0.000155

 -------------------------------------------
       MAXIMIZING MORMO OVERLAP TERM        
 -------------------------------------------
   SWEEP    VALUE       PROGRESS
     0     5.00133
     1     6.86869     1.86735797
     2     6.93874     0.07005420
     3     6.93879     0.00004898
     4     6.93879     0.00000000
     5     6.93879    -0.00000000
     6     6.93879     0.00000000
 THE ROTATION IS DONE
ACTIVE ORBITALS AFTER MORMO:

                      1          2          3          4          5

    1  N  1  S    0.005560  -0.022431  -0.019853  -0.012259   0.181014
    2  N  1  S    0.421998  -0.047386  -0.053872  -0.190524   0.670718
    3  N  1  S    0.340132   0.013358   0.064952  -0.268793   0.216012
    4  N  1  X    0.009198   0.510038  -0.049389  -0.039047   0.027506
    5  N  1  Y   -0.006164   0.015889   0.416847  -0.026577  -0.036259
    6  N  1  Z    0.082274  -0.041945  -0.014639   0.604645   0.593540
    7  N  1  X    0.006450   0.190405   0.008769   0.048220  -0.048526
    8  N  1  Y    0.026096   0.042768   0.336687   0.039592  -0.027938
    9  N  1  Z    0.031171   0.060579   0.047593   0.386952  -0.059239
   10  N  1 XX    0.006159   0.008832   0.014331  -0.010359  -0.040967
   11  N  1 YY   -0.005902  -0.009303  -0.013485  -0.010580   0.031805
   12  N  1 ZZ   -0.000258   0.000471  -0.000846   0.020939   0.009162
   13  N  1 XY   -0.004312  -0.011027  -0.025728  -0.006481   0.025790
   14  N  1 XZ   -0.003413   0.012939   0.000145   0.002821   0.030870
   15  N  1 YZ    0.000612  -0.000276   0.023488  -0.004093   0.027359
   16  H  2  S    0.186572  -0.136394   0.356835   0.101402  -0.399087
   17  H  2  S    0.012765  -0.001470   0.152518   0.036801  -0.057612
   18  H  2  X    0.026558  -0.012218   0.040643   0.012311  -0.029904
   19  H  2  Y   -0.013098   0.017632   0.003459  -0.003684   0.032460
   20  H  2  Z   -0.004923   0.014793  -0.007676   0.017650  -0.023246
   21  H  3  S    0.181114  -0.180308  -0.365000   0.081463  -0.466298
   22  H  3  S   -0.002598  -0.029919  -0.154376   0.020278  -0.069912
   23  H  3  X    0.021864   0.000336  -0.025983   0.011965  -0.012764
   24  H  3  Y    0.023296  -0.014043  -0.001049   0.016292  -0.048488
   25  H  3  Z   -0.014095   0.020299   0.025482   0.016581  -0.007873
   26  H  4  S    0.187253   0.383009   0.011269   0.127981  -0.490602
   27  H  4  S    0.004128   0.051772   0.022750   0.038926  -0.070927
   28  H  4  X   -0.032767  -0.038810   0.012073  -0.010736   0.053044
   29  H  4  Y    0.009439   0.019662   0.019855   0.005071  -0.016935
   30  H  4  Z   -0.002210  -0.007180   0.002425   0.021914  -0.013713

                      6          7

    1  N  1  S   -0.073259   0.008807
    2  N  1  S   -0.160991   0.030371
    3  N  1  S    0.141262  -0.080321
    4  N  1  X   -0.874895  -0.031352
    5  N  1  Y    0.030883   0.853540
    6  N  1  Z    0.009440  -0.072467
    7  N  1  X   -0.119511   0.015969
    8  N  1  Y    0.001893  -0.007384
    9  N  1  Z    0.041391   0.025521
   10  N  1 XX   -0.005429  -0.031046
   11  N  1 YY    0.025526   0.030965
   12  N  1 ZZ   -0.020097   0.000081
   13  N  1 XY   -0.042723   0.043613
   14  N  1 XZ    0.044528   0.005644
   15  N  1 YZ   -0.019163  -0.019629
   16  H  2  S   -0.340597  -0.516585
   17  H  2  S   -0.078411  -0.210530
   18  H  2  X   -0.011067  -0.052059
   19  H  2  Y    0.039374  -0.000286
   20  H  2  Z   -0.022680   0.007985
   21  H  3  S   -0.350105   0.569190
   22  H  3  S   -0.067879   0.223343
   23  H  3  X    0.028094   0.034226
   24  H  3  Y   -0.038155   0.007292
   25  H  3  Z   -0.002324  -0.019210
   26  H  4  S    0.666324   0.035626
   27  H  4  S    0.146113   0.001185
   28  H  4  X   -0.060111  -0.012279
   29  H  4  Y    0.016907  -0.006943
   30  H  4  Z    0.021926   0.014800

Actually Used Diabatic Molecualr Orbitals:

                      1          2          3          4          5

    1  N  1  S    0.005560  -0.022431  -0.019853  -0.012259   0.181014
    2  N  1  S    0.421998  -0.047386  -0.053872  -0.190524   0.670718
    3  N  1  S    0.340132   0.013358   0.064952  -0.268793   0.216012
    4  N  1  X    0.009198   0.510038  -0.049389  -0.039047   0.027506
    5  N  1  Y   -0.006164   0.015889   0.416847  -0.026577  -0.036259
    6  N  1  Z    0.082274  -0.041945  -0.014639   0.604645   0.593540
    7  N  1  X    0.006450   0.190405   0.008769   0.048220  -0.048526
    8  N  1  Y    0.026096   0.042768   0.336687   0.039592  -0.027938
    9  N  1  Z    0.031171   0.060579   0.047593   0.386952  -0.059239
   10  N  1 XX    0.006159   0.008832   0.014331  -0.010359  -0.040967
   11  N  1 YY   -0.005902  -0.009303  -0.013485  -0.010580   0.031805
   12  N  1 ZZ   -0.000258   0.000471  -0.000846   0.020939   0.009162
[...]
 STATE #  2'S GMC-PT-LEVEL DIABATIC ENERGY=     -55.645850546       6.978531448
 STATE #  3'S GMC-PT-LEVEL DIABATIC ENERGY=     -55.840130123       1.691914867

 --- DIABATIC COUPLINGS (OFF DIAGONAL ELEMENTS)---  HATREE            EV
 STATE #  1 &  2'S GMC-PT-LEVEL COUPLING  =       0.052432497       1.426760926
 STATE #  1 &  3'S GMC-PT-LEVEL COUPLING  =       0.026213875       0.713315859
 STATE #  2 &  3'S GMC-PT-LEVEL COUPLING  =      -0.033436789      -0.909861382

 ---------------------------------------
     - ROTATION TO DIABATIC STATES -    
 ---------------------------------------
 ROWS=ADIABATIC, COLUMNS=DIABATIC STATES

             1           2           3

    1   -0.9067398   0.2137214   0.3635190
    2    0.3832119   0.0578541   0.9218468
    3    0.1759873   0.9751800  -0.1343592

 ---------------------------------------
          - DIABATIC STATES -           
 ---------------------------------------

 State #    1  Energy =     -55.902306848

      Det      Coef        Coefp    Occupancy (Ignoring core)
      ---      ----        ----    --------- --------- -----
        1    0.908400   -0.908400  222+000
       17    0.195357    0.195357  22-+00+
      701   -0.161859   -0.161859  22++00-
        4    0.124961   -0.124961  2-2++00
      176   -0.120409    0.120409  2+2+-00
        6   -0.082810    0.082810  22200+0
        3    0.074560    0.074560  22-++00
      141   -0.071617   -0.071617  22++-00
      393   -0.062232   -0.062232  202+020
      351    0.058508    0.058508  22++0-0
       16    0.057976   -0.057976  222000+
      717   -0.057921   -0.057921  220+002
        7   -0.056994   -0.056994  22-+0+0
      402    0.049200   -0.049200  2+-+0-+
      192    0.044563   -0.044563  2+-+-0+
      708    0.043901   -0.043901  2-++0+-
      704    0.042744   -0.042744  2-+++0-
      215   -0.038864   -0.038864  022+200
       23   -0.035782   -0.035782  2--++0+
      390    0.035764   -0.035764  -+2++-0
      218    0.034732   -0.034732  +-2+-+0
       51   -0.033498    0.033498  22+-00+
        5    0.032797    0.032797  -22++00
      227   -0.032664   -0.032664  +2-+-0+
      705   -0.031974   -0.031974  -2+++0-
      706    0.031838    0.031838  22+00+-
      212    0.031484    0.031484  +220200
      386   -0.030969    0.030969  2+2+0-0
     1051   -0.030900   -0.030900  2+++0--
      911   -0.030734   -0.030734  2+++-0-
      702    0.029326    0.029326  22+0+0-
      122    0.028947    0.028947  +2-200+
       29   -0.027101   -0.027101  2--+0++
       18    0.025975   -0.025975  2-2+00+
      773    0.025282   -0.025282  +2-++0-
      143   -0.025209   -0.025209  220+200
      424   -0.024998   -0.024998  +-2++-0
      736   -0.024766    0.024766  2+2+00-
       20   -0.024548   -0.024548  22-0+0+
       26   -0.024302   -0.024302  22-00++
      159    0.023885   -0.023885  -2++-0+
      387   -0.023597    0.023597  2+20+-0
       76    0.023303    0.023303  2+2-0+0
      184   -0.022999   -0.022999  -+2+-+0
      113   -0.022185    0.022185  +-220+0
       19    0.020385    0.020385  -22+00+
      179   -0.020012   -0.020012  202+200

 State #    2  Energy =     -55.645850546

      Det      Coef        Coefp    Occupancy (Ignoring core)
      ---      ----        ----    --------- --------- -----
       71   -0.907242    0.907242  2+22000
      806   -0.162728   -0.162728  2++200-
       87    0.151226   -0.151226  2+-200+
       74   -0.094976    0.094976  2022+00
       73    0.088191   -0.088191  2+-2+00
      386    0.087083   -0.087083  2+2+0-0
      246   -0.086291   -0.086291  2++2-00
       76   -0.085477   -0.085477  2+2-0+0
       77   -0.075147    0.075147  2+-20+0
      736   -0.067137    0.067137  2+2+00-
       78   -0.066406    0.066406  20220+0
      822    0.065684   -0.065684  2+02002
       86    0.064918    0.064918  2+2-00+
      456    0.064904    0.064904  2++20-0
      106   -0.058991   -0.058991  +222000
      813    0.055203   -0.055203  20+20+-
      122    0.053428    0.053428  +2-200+
       36    0.046734    0.046734  22+2000
      320    0.040171    0.040171  0+22200
       38   -0.040145    0.040145  2202+00
       99   -0.039923    0.039923  20-20++
      807   -0.038743    0.038743  2++-+0-
      332   -0.037975    0.037975  ++-2-0+
       72   -0.037553   -0.037553  2+2-+00
      111    0.037359   -0.037359  +22-0+0
      317    0.037125   -0.037125  ++2-200
      810   -0.036384   -0.036384  -++2+0-
      192   -0.035930    0.035930  2+-+-0+
      809    0.035779   -0.035779  20+2+0-
      316    0.035532    0.035532  ++22-00
       90    0.035490    0.035490  2+--+0+
      180   -0.035156    0.035156  -+2+200
      177    0.034812   -0.034812  2+20200
      323   -0.032996    0.032996  +022-+0
      811   -0.032274    0.032274  2++-0+-
      841   -0.031402    0.031402  +2+200-
      248    0.031273   -0.031273  2+02200
      402   -0.030271    0.030271  2+-+0-+
      911    0.028994    0.028994  2+++-0-
        6    0.027979   -0.027979  22200+0
      264    0.027728   -0.027728  -++2-0+
       51    0.027516   -0.027516  22+-00+
      878    0.025761    0.025761  ++-2+0-
      108    0.024375    0.024375  +2-2+00
        4    0.023336   -0.023336  2-2++00
       17   -0.023303   -0.023303  22-+00+
       93   -0.023087    0.023087  20-2+0+
      183   -0.023025    0.023025  202+-+0
      109   -0.022388    0.022388  +-22+00
       54   -0.022026    0.022026  -2+200+
      821    0.020281   -0.020281  2++-002

 State #    3  Energy =     -55.840130123

      Det      Coef        Coefp    Occupancy (Ignoring core)
      ---      ----        ----    --------- --------- -----
       36   -0.909345   -0.909345  22+2000
       52   -0.160007    0.160007  220200+
       39   -0.158634   -0.158634  2-+2+00
      246    0.134621    0.134621  2++2-00
       41   -0.115353    0.115353  22+-0+0
      351    0.108635    0.108635  22++0-0
       38   -0.079458    0.079458  2202+00
       51    0.063890   -0.063890  22+-00+
      701   -0.062773   -0.062773  22++00-
      106   -0.059134   -0.059134  +222000
      463    0.058707   -0.058707  20+2020
      472   -0.055329   -0.055329  2+020-+
       42    0.053110   -0.053110  22020+0
      456    0.052380    0.052380  2++20-0
      262   -0.046020   -0.046020  2+02-0+
       43   -0.043529   -0.043529  2-+20+0
       64    0.041063   -0.041063  2-020++
       71   -0.040546    0.040546  2+22000
       58    0.040077   -0.040077  2-02+0+
      367    0.040029   -0.040029  220+0-+
      157    0.039678   -0.039678  220+-0+
       55   -0.038920   -0.038920  220-+0+
      285    0.038861   -0.038861  02+2200
       53   -0.036856   -0.036856  2-+200+
      460   -0.036304   -0.036304  -++2+-0
      288   -0.034843   -0.034843  +-+2-+0
      145   -0.034819   -0.034819  -2++200
      142    0.034801    0.034801  22+0200
       37   -0.034681    0.034681  22+-+00
      297    0.034381   -0.034381  +202-0+
       40   -0.033695    0.033695  -2+2+00
      282    0.033439    0.033439  +2+-200
      123    0.031556   -0.031556  +-2200+
       61   -0.030903   -0.030903  220-0++
      141    0.026791    0.026791  22++-00
      494    0.024828   -0.024828  +-+2+-0
       46    0.024197   -0.024197  2-+-++0
      843   -0.024136   -0.024136  +202+0-
      121   -0.024071    0.024071  +22-00+
       73    0.024012   -0.024012  2+-2+00
      457   -0.023699    0.023699  2++-+-0
      148   -0.023309   -0.023309  2-++-+0
      254    0.022191   -0.022191  -++2-+0
       86    0.021840    0.021840  2+2-00+
      108    0.021522    0.021522  +2-2+00
      806    0.021377    0.021377  2++200-
       54   -0.021004    0.021004  -2+200+
      716    0.020493    0.020493  22+0002
      109    0.020449   -0.020449  +-22+00

 ---------------------------------------
      - DIABATIC STATES IN CMO -        
 ---------------------------------------

 State #    1  Energy =     -55.902306848

      Det      Coef        Coefp    Occupancy (Ignoring core)
      ---      ----        ----    --------- --------- -----
        1    0.831224   -0.831224  222+000
       36   -0.477817   -0.477817  22+2000
       71   -0.169328    0.169328  2+22000
      717   -0.059214   -0.059214  220+002
      142    0.048367    0.048367  22+0200
      393   -0.047174   -0.047174  202+020
      143   -0.044426   -0.044426  220+200
      106   -0.038522   -0.038522  +222000
      145   -0.033066   -0.033066  -2++200
      179   -0.032851   -0.032851  202+200
      157    0.032327   -0.032327  220+-0+
      718   -0.031291    0.031291  2-++002
       17    0.030755    0.030755  22-+00+
        8   -0.030744    0.030744  2-2+0+0
        2    0.030680   -0.030680  2220+00
      752    0.030133    0.030133  2+-+002
      463    0.029532   -0.029532  20+2020
      212    0.029109    0.029109  +220200
      215   -0.026133   -0.026133  022+200
      122    0.025406    0.025406  +2-200+
      753   -0.025138   -0.025138  202+002
      144    0.024333   -0.024333  2-++200
      148   -0.024293   -0.024293  2-++-+0
      249    0.024136   -0.024136  20+2200
       51   -0.023626    0.023626  22+-00+
       18    0.023626   -0.023626  2-2+00+
       38   -0.023343    0.023343  2202+00
      719    0.022497    0.022497  -2++002
      387   -0.022147    0.022147  2+20+-0
      123    0.022115   -0.022115  +-2200+
      703   -0.021747   -0.021747  220++0-
      390    0.021712   -0.021712  -+2++-0
      218    0.021440   -0.021440  +-2+-+0
      789   -0.021409   -0.021409  022+002

 State #    2  Energy =     -55.645850546

      Det      Coef        Coefp    Occupancy (Ignoring core)
      ---      ----        ----    --------- --------- -----
       71   -0.950569    0.950569  2+22000
        1   -0.201324    0.201324  222+000
      822    0.068609   -0.068609  2+02002
      177    0.054576   -0.054576  2+20200
      122    0.046615    0.046615  +2-200+
       37    0.041305   -0.041305  22+-+00
      248    0.039445   -0.039445  2+02200
        3   -0.038459   -0.038459  22-++00
      109   -0.037860    0.037860  +-22+00
        4    0.037493   -0.037493  2-2++00
      180   -0.036726    0.036726  -+2+200
      823   -0.034588    0.034588  20+2002
        2   -0.034381    0.034381  2220+00
      317    0.033375   -0.033375  ++2-200
      107    0.032474   -0.032474  +22-+00
      320    0.031422    0.031422  0+22200
      178    0.029910    0.029910  2+-+200
       72   -0.029015   -0.029015  2+2-+00
      111    0.027966   -0.027966  +22-0+0
      894    0.026880    0.026880  0+22002
       54   -0.025781    0.025781  -2+200+
      247   -0.025732    0.025732  2++-200
      262   -0.025172   -0.025172  2+02-0+
      808    0.025114   -0.025114  2+02+0-
      179    0.024507    0.024507  202+200
      807   -0.024483    0.024483  2++-+0-
      192   -0.024317    0.024317  2+-+-0+
      183   -0.023730    0.023730  202+-+0
      108    0.023648    0.023648  +2-2+00
       78   -0.023616    0.023616  20220+0
       77   -0.023227    0.023227  2+-20+0
      911    0.023183    0.023183  2+++-0-
       99   -0.023115    0.023115  20-20++
       75    0.021966    0.021966  -+22+00
       74    0.021472   -0.021472  2022+00
      824    0.021197    0.021197  -++2002
      841   -0.020834    0.020834  +2+200-
      892   -0.020743   -0.020743  ++-2002
      323   -0.020468    0.020468  +022-+0
      250   -0.020383   -0.020383  -++2200
       90    0.020377    0.020377  2+--+0+
      318    0.020367    0.020367  ++-2200
      391    0.020203   -0.020203  2+20020
      462    0.020101   -0.020101  2+02020

 State #    3  Energy =     -55.840130123

      Det      Coef        Coefp    Occupancy (Ignoring core)
      ---      ----        ----    --------- --------- -----
       36   -0.853880   -0.853880  22+2000
        1   -0.469014    0.469014  222+000
       71    0.109102   -0.109102  2+22000
      463    0.044078   -0.044078  20+2020
      822   -0.040531    0.040531  2+02002
      249    0.039692   -0.039692  20+2200
      717    0.035702    0.035702  220+002
      142    0.034305    0.034305  22+0200
      823    0.030547   -0.030547  20+2002
      282    0.029412    0.029412  +2+-200
      108    0.026816    0.026816  +2-2+00
      109    0.026122   -0.026122  +-22+00
      285    0.026009   -0.026009  02+2200
      393    0.025769    0.025769  202+020
      859    0.024663   -0.024663  02+2002
       58    0.024296   -0.024296  2-02+0+
       38   -0.023997    0.023997  2202+00
      457   -0.023845    0.023845  2++-+-0
      123    0.023268   -0.023268  +-2200+
       55   -0.021809   -0.021809  220-+0+
        2   -0.021755    0.021755  2220+00
       64    0.021544   -0.021544  2-020++
      179    0.021243    0.021243  202+200
      288   -0.020672   -0.020672  +-+2-+0
      356    0.020241    0.020241  22+0020

 ---------------------------------------
    -DIABATIC STATES IN PROTOTYPES-     
 ---------------------------------------

     STATE:    1
 Group Ref#    Coefficients
     1    1    0.929110
     2    2    0.003996
     3    3   -0.009080

WEIGHT OF LISTED PROTOTYPES:   86.33%

     STATE:    2
 Group Ref#    Coefficients
     1    1    0.004039
     2    2    0.919431
     3    3    0.000234

WEIGHT OF LISTED PROTOTYPES:   84.54%

     STATE:    3
 Group Ref#    Coefficients
     1    1   -0.009085
     2    2    0.000232
     3    3    0.928640

WEIGHT OF LISTED PROTOTYPES:   86.25%

     DIRECT MAX. DIABATIZATION FINISHED    
 CPU     0: STEP CPU TIME=     0.25 TOTAL CPU TIME=         15.3 (      0.3 MIN)
 TOTAL WALL CLOCK TIME=         15.3 SECONDS, CPU UTILIZATION IS    99.87%

DIABATS FOR SPIN-ORBIT CALCULATION ARE READY

TRANSITION DIPOLES BETWEEN ADIABATS (in A.U.):

STATE PAIR      X         Y         Z
    1    1 -0.336204 -0.155576  0.645394
    2    1  0.034989 -0.005518 -0.166644
    2    2 -0.195741 -0.322459  0.353823
    3    1 -0.151086  0.029150 -0.080623
    3    2 -0.041602  0.097384  0.001028
    3    3 -0.608724 -0.178157  0.271362


TRANSITION DIPOLES BETWEEN DIABATS (in A.U.):

STATE PAIR      X         Y         Z
    1    1 -0.305722 -0.173115  0.732669
    2    1  0.069309  0.004967 -0.006921
    2    2 -0.661703 -0.154606  0.251111
    3    1 -0.000989 -0.038372  0.007056
    3    2 -0.035470  0.089141 -0.028229
    3    3 -0.173244 -0.328471  0.286797

TRANSITION DIPOLES BETWEEN DIRECT MAX. DIABATS (in A.U.):

STATE PAIR      X         Y         Z
    1    1 -0.305725 -0.173116  0.732670
    2    1  0.069317  0.004967 -0.006910
    2    2 -0.661700 -0.154606  0.251111
    3    1 -0.000988 -0.038375  0.007056
    3    2 -0.035469  0.089139 -0.028229
    3    3 -0.173244 -0.328471  0.286797
 No $TRANST Group Found.
 Quit without doing spin-orbit coupling
 ..... DONE WITH MP2 ENERGY .....
 CPU     0: STEP CPU TIME=     0.00 TOTAL CPU TIME=         15.3 (      0.3 MIN)
 TOTAL WALL CLOCK TIME=         15.3 SECONDS, CPU UTILIZATION IS    99.87%
            100000000  WORDS OF DYNAMIC MEMORY USED
 EXECUTION OF GAMESS TERMINATED NORMALLY Wed Nov 16 18:50:00 2022
 DDI: 715512 bytes (0.7 MB / 0 MWords) used by master data server.

 ----------------------------------------
 CPU timing information for all processes
 ========================================
 0: 14.970 + 0.367 = 15.338
 ----------------------------------------
Note: The following floating-point exceptions are signalling: IEEE_DENORMAL
 ddikick.x: exited gracefully.
unset echo
----- accounting info -----
Files used on the master node io002 were:
-rw-r--r-- 1 bsonghao nooijen   20708 Nov 16 18:49 /scratch/bsonghao/nh3_diabatization_2d_at_mode_7_8_dist-0.4_-0.7.F05
-rw-r--r-- 1 bsonghao nooijen  363520 Nov 16 18:49 /scratch/bsonghao/nh3_diabatization_2d_at_mode_7_8_dist-0.4_-0.7.F09
-rw-r--r-- 1 bsonghao nooijen 1995920 Nov 16 18:50 /scratch/bsonghao/nh3_diabatization_2d_at_mode_7_8_dist-0.4_-0.7.F10
-rw-r--r-- 1 bsonghao nooijen  131264 Nov 16 18:49 /scratch/bsonghao/nh3_diabatization_2d_at_mode_7_8_dist-0.4_-0.7.F13
-rw-r--r-- 1 bsonghao nooijen  180312 Nov 16 18:50 /scratch/bsonghao/nh3_diabatization_2d_at_mode_7_8_dist-0.4_-0.7.F15
-rw-r--r-- 1 bsonghao nooijen       0 Nov 16 18:49 /scratch/bsonghao/nh3_diabatization_2d_at_mode_7_8_dist-0.4_-0.7.F16
-rw-r--r-- 1 bsonghao nooijen    9808 Nov 16 18:49 /scratch/bsonghao/nh3_diabatization_2d_at_mode_7_8_dist-0.4_-0.7.F70
-rw-r--r-- 1 bsonghao nooijen    9808 Nov 16 18:49 /scratch/bsonghao/nh3_diabatization_2d_at_mode_7_8_dist-0.4_-0.7.F71
-rw-r--r-- 1 bsonghao nooijen   19608 Nov 16 18:49 /scratch/bsonghao/nh3_diabatization_2d_at_mode_7_8_dist-0.4_-0.7.F72
-rw-r--r-- 1 bsonghao nooijen   19608 Nov 16 18:49 /scratch/bsonghao/nh3_diabatization_2d_at_mode_7_8_dist-0.4_-0.7.F73
-rw-r--r-- 1 bsonghao nooijen 1920824 Nov 16 18:49 /scratch/bsonghao/nh3_diabatization_2d_at_mode_7_8_dist-0.4_-0.7.F74
-rw-r--r-- 1 bsonghao nooijen       0 Nov 16 18:49 /scratch/bsonghao/nh3_diabatization_2d_at_mode_7_8_dist-0.4_-0.7.F75
-rw-r--r-- 1 bsonghao nooijen   58848 Nov 16 18:49 /scratch/bsonghao/nh3_diabatization_2d_at_mode_7_8_dist-0.4_-0.7.F76
-rw-r--r-- 1 bsonghao nooijen       0 Nov 16 18:49 /scratch/bsonghao/nh3_diabatization_2d_at_mode_7_8_dist-0.4_-0.7.F77
-rw-r--r-- 1 bsonghao nooijen    1864 Nov 16 18:49 /scratch/bsonghao/nh3_diabatization_2d_at_mode_7_8_dist-0.4_-0.7.F78
-rw-r--r-- 1 bsonghao nooijen   39208 Nov 16 18:49 /scratch/bsonghao/nh3_diabatization_2d_at_mode_7_8_dist-0.4_-0.7.F79
-rw-r--r-- 1 bsonghao nooijen     104 Nov 16 18:49 /scratch/bsonghao/nh3_diabatization_2d_at_mode_7_8_dist-0.4_-0.7.F80
-rw-r--r-- 1 bsonghao nooijen   13472 Nov 16 18:49 /scratch/bsonghao/nh3_diabatization_2d_at_mode_7_8_dist-0.4_-0.7.F81
-rw-r--r-- 1 bsonghao nooijen      16 Nov 16 18:49 /scratch/bsonghao/nh3_diabatization_2d_at_mode_7_8_dist-0.4_-0.7.F82
-rw-r--r-- 1 bsonghao nooijen   19216 Nov 16 18:49 /scratch/bsonghao/nh3_diabatization_2d_at_mode_7_8_dist-0.4_-0.7.F83
-rw-r--r-- 1 bsonghao nooijen   29712 Nov 16 18:49 /scratch/bsonghao/nh3_diabatization_2d_at_mode_7_8_dist-0.4_-0.7.F84
-rw-r--r-- 1 bsonghao nooijen  401576 Nov 16 18:49 /scratch/bsonghao/nh3_diabatization_2d_at_mode_7_8_dist-0.4_-0.7.F85
-rw-r--r-- 1 bsonghao nooijen  903672 Nov 16 18:49 /scratch/bsonghao/nh3_diabatization_2d_at_mode_7_8_dist-0.4_-0.7.F86
-rw-r--r-- 1 bsonghao nooijen     656 Nov 16 18:50 /scratch/bsonghao/nh3_diabatization_2d_at_mode_7_8_dist-0.4_-0.7.F87
-rw-r--r-- 1 bsonghao nooijen   42608 Nov 16 18:50 /scratch/bsonghao/nh3_diabatization_2d_at_mode_7_8_dist-0.4_-0.7.F88
-rw-r--r-- 1 bsonghao nooijen     240 Nov 16 18:49 /scratch/bsonghao/nh3_diabatization_2d_at_mode_7_8_dist-0.4_-0.7.F89
-rw-r--r-- 1 bsonghao nooijen       0 Nov 16 18:49 /scratch/bsonghao/nh3_diabatization_2d_at_mode_7_8_dist-0.4_-0.7.F90
-rw-r--r-- 1 bsonghao nooijen   13760 Nov 16 18:50 /scratch/bsonghao/nh3_diabatization_2d_at_mode_7_8_dist-0.4_-0.7.F91
-rw-r--r-- 1 bsonghao nooijen   22776 Nov 16 18:49 /scratch/bsonghao/nh3_diabatization_2d_at_mode_7_8_dist-0.4_-0.7.F92
-rw-r--r-- 1 bsonghao nooijen   23168 Nov 16 18:49 /scratch/bsonghao/nh3_diabatization_2d_at_mode_7_8_dist-0.4_-0.7.F93
-rw-r--r-- 1 bsonghao nooijen   22776 Nov 16 18:49 /scratch/bsonghao/nh3_diabatization_2d_at_mode_7_8_dist-0.4_-0.7.F94
-rw-r--r-- 1 bsonghao nooijen   13760 Nov 16 18:49 /scratch/bsonghao/nh3_diabatization_2d_at_mode_7_8_dist-0.4_-0.7.F95
-rw-r--r-- 1 bsonghao nooijen   29440 Nov 16 18:50 /scratch/bsonghao/nh3_diabatization_2d_at_mode_7_8_dist-0.4_-0.7.F96
-rw-r--r-- 1 bsonghao nooijen    1184 Nov 16 18:49 /scratch/bsonghao/nh3_diabatization_2d_at_mode_7_8_dist-0.4_-0.7.F97
-rw-r--r-- 1 bsonghao nooijen    9808 Nov 16 18:49 /scratch/bsonghao/nh3_diabatization_2d_at_mode_7_8_dist-0.4_-0.7.F98
-rw-r--r-- 1 bsonghao nooijen   30264 Nov 16 18:49 /scratch/bsonghao/nh3_diabatization_2d_at_mode_7_8_dist-0.4_-0.7.F99
ls: No match.
ls: No match.
ls: No match.
Wed 16 Nov 2022 06:50:03 PM EST
0.309u 0.028s 0:18.71 1.7%	0+0k 48+224io 0pf+0w
