----- GAMESS execution script 'rungms' -----
This job is running on host io002
under operating system Linux at Wed 16 Nov 2022 06:47:52 PM EST
Available scratch disk space (Kbyte units) at beginning of the job is
Filesystem       1K-blocks       Used   Available Use% Mounted on
/dev/sdc1      15378471580 3278917120 11318349060  23% /scratch
GAMESS temporary binary files will be written to /scratch/bsonghao
GAMESS supplementary output files will be written to /home/bsonghao/.gamess_ascii_files/267638
Copying input file nh3_diabatization_2d_at_mode_7_8_dist-0.5_0.6.inp to your run's scratch directory...
cp nh3_diabatization_2d_at_mode_7_8_dist-0.5_0.6.inp /scratch/bsonghao/nh3_diabatization_2d_at_mode_7_8_dist-0.5_0.6.F05
unset echo
/home/bjb2chen/gamess/ddikick.x /home/bjb2chen/gamess/gamess.00.x nh3_diabatization_2d_at_mode_7_8_dist-0.5_0.6 -ddi 1 1 io002 -scr /scratch/bsonghao

 Distributed Data Interface kickoff program.
 Initiating 1 compute processes on 1 nodes to run the following command:
 /home/bjb2chen/gamess/gamess.00.x nh3_diabatization_2d_at_mode_7_8_dist-0.5_0.6 

          ******************************************************
          *         GAMESS VERSION = 02 AUG 2018 (R2)         *
          *             FROM IOWA STATE UNIVERSITY             *
          * M.W.SCHMIDT, K.K.BALDRIDGE, J.A.BOATZ, S.T.ELBERT, *
          *   M.S.GORDON, J.H.JENSEN, S.KOSEKI, N.MATSUNAGA,   *
          *          K.A.NGUYEN, S.J.SU, T.L.WINDUS,           *
          *       TOGETHER WITH M.DUPUIS, J.A.MONTGOMERY       *
          *         J.COMPUT.CHEM.  14, 1347-1363(1993)        *
          **************** 64 BIT LINUX VERSION ****************

  SINCE 1993, STUDENTS AND POSTDOCS WORKING AT IOWA STATE UNIVERSITY
  AND ALSO IN THEIR VARIOUS JOBS AFTER LEAVING ISU HAVE MADE IMPORTANT
  CONTRIBUTIONS TO THE CODE:
     IVANA ADAMOVIC, CHRISTINE AIKENS, YURI ALEXEEV, POOJA ARORA,
     ANDREY ASADCHEV, ROB BELL, PRADIPTA BANDYOPADHYAY, JONATHAN BENTZ,
     BRETT BODE, KURT BRORSEN, CALEB CARLIN, GALINA CHABAN, WEI CHEN,
     CHEOL HO CHOI, PAUL DAY, ALBERT DEFUSCO, NUWAN DESILVA, TIM DUDLEY,
     DMITRI FEDOROV, ALEX FINDLATER, GRAHAM FLETCHER, MARK FREITAG,
     KURT GLAESEMANN, ANASTASIA GUININA,
     DAN KEMP, GRANT MERRILL, NORIYUKI MINEZAWA, JONATHAN MULLIN,
     TAKESHI NAGATA, SEAN NEDD, HEATHER NETZLOFF, BOSILJKA NJEGIC, RYAN OLSON,
     MIKE PAK, BUU PHAM,
     SPENCER PRUITT, LUKE ROSKOP, JIM SHOEMAKER, LYUDMILA SLIPCHENKO,
     TONY SMITH, SAROM SOK LEANG, JIE SONG, TETSUYA TAKETSUGU, SIMON WEBB,
     PENG XU, SOOHAENG YOO, FEDERICO ZAHARIEV

  ADDITIONAL CODE HAS BEEN PROVIDED BY COLLABORATORS IN OTHER GROUPS:
     IOWA STATE UNIVERSITY:
          JOE IVANIC, AARON WEST, LAIMUTIS BYTAUTAS, KLAUS RUEDENBERG
     UNIVERSITY OF TOKYO: KIMIHIKO HIRAO, TAKAHITO NAKAJIMA,
          TAKAO TSUNEDA, MUNEAKI KAMIYA, SUSUMU YANAGISAWA,
          KIYOSHI YAGI, MAHITO CHIBA, SEIKEN TOKURA, NAOAKI KAWAKAMI
     UNIVERSITY OF AARHUS: FRANK JENSEN
     UNIVERSITY OF IOWA: VISVALDAS KAIRYS, HUI LI
     NATIONAL INST. OF STANDARDS AND TECHNOLOGY: WALT STEVENS, DAVID GARMER
     UNIVERSITY OF PISA: BENEDETTA MENNUCCI, JACOPO TOMASI
     UNIVERSITY OF MEMPHIS: HENRY KURTZ, PRAKASHAN KORAMBATH
     UNIVERSITY OF ALBERTA: TOBY ZENG, MARIUSZ KLOBUKOWSKI
     UNIVERSITY OF NEW ENGLAND: MARK SPACKMAN
     MIE UNIVERSITY: HIROAKI UMEDA
     NAT. INST. OF ADVANCED INDUSTRIAL SCIENCE AND TECHNOLOGY: KAZUO KITAURA
     MICHIGAN STATE UNIVERSITY:
          KAROL KOWALSKI, MARTA WLOCH, JEFFREY GOUR, JESSE LUTZ,
          WEI LI, JUN SHEN, J. EMILIANO DEUSTUA, PIOTR PIECUCH
     UNIVERSITY OF MINNESOTA:
          YINAN SHU
     UNIVERSITY OF SILESIA: MONIKA MUSIAL, STANISLAW KUCHARSKI
     FACULTES UNIVERSITAIRES NOTRE-DAME DE LA PAIX:
          OLIVIER QUINET, BENOIT CHAMPAGNE
     UNIVERSITY OF CALIFORNIA - SANTA BARBARA: BERNARD KIRTMAN
     INSTITUTE FOR MOLECULAR SCIENCE:
          KAZUYA ISHIMURA, MICHIO KATOUDA, AND SHIGERU NAGASE
     UNIVERSITY OF NOTRE DAME: ANNA POMOGAEVA, DAN CHIPMAN
     KYUSHU UNIVERSITY:
          HARUYUKI NAKANO,
          FENG LONG GU, JACEK KORCHOWIEC, MARCIN MAKOWSKI, AND YURIKO AOKI,
          HIROTOSHI MORI AND EISAKU MIYOSHI
     PENNSYLVANIA STATE UNIVERSITY:
          TZVETELIN IORDANOV, CHET SWALINA, JONATHAN SKONE,
          SHARON HAMMES-SCHIFFER
     WASEDA UNIVERSITY:
          MASATO KOBAYASHI, TOMOKO AKAMA, TSUGUKI TOUMA,
          TAKESHI YOSHIKAWA, YASUHIRO IKABATA, JUNJI SEINO,
          YUYA NAKAJIMA, HIROMI NAKAI
     NANJING UNIVERSITY: SHUHUA LI
     UNIVERSITY OF NEBRASKA:
          PEIFENG SU, DEJUN SI, NANDUN THELLAMUREGE, YALI WANG, HUI LI
     UNIVERSITY OF ZURICH: ROBERTO PEVERATI, KIM BALDRIDGE
     N. COPERNICUS UNIVERSITY AND JACKSON STATE UNIVERSITY:
          MARIA BARYSZ
     UNIVERSITY OF COPENHAGEN: Jimmy Kromann, CASPER STEINMANN
     TOKYO INSTITUTE OF TECHNOLOGY: HIROYA NAKATA
     NAGOYA UNIVERSITY: YOSHIO NISHIMOTO, STEPHAN IRLE
     MOSCOW STATE UNIVERSITY: VLADIMIR MIRONOV

 EXECUTION OF GAMESS BEGUN Wed Nov 16 18:47:53 2022

            ECHO OF THE FIRST FEW INPUT CARDS -
 INPUT CARD> $system kdiag=3 mwords=100 memddi=1000 parall=.t. $end                         
 INPUT CARD> $contrl runtyp=energy ispher=1 $end                                            
 INPUT CARD> $contrl icut=9 itol=20 inttyp=rysquad qmttol=1.0d-05 nosym=1 $end              
 INPUT CARD> $scf    npunch=2 conv=1.0d-06 dirscf=.t.      $end                             
 INPUT CARD> $contrl scftyp=mcscf  mult=2 maxit=200 icharg=1 mplevl=2 $end                  
 INPUT CARD> $guess  guess=moread norb=29 purify=.t. $end                                   
 INPUT CARD> $basis  gbasis=ccd $end                                                        
 INPUT CARD> $mcscf  cistep=gmcci fullnr=.t. finci=mos                                      
 INPUT CARD>         acurcy=1.d-6 maxit=100 $end                                            
 INPUT CARD> $trans  dirtrf=.t. $end                                                        
 INPUT CARD> $mrmp   mrpt=gmcpt rdvecs=.f. $end                                             
 INPUT CARD> $gmcpt  nmofzc=0 nmodoc=1 nmoact=7 nelact=7 stsym(1)=A                         
 INPUT CARD>         reftyp=ormas nspace=1 mstart(1)=2 mine(1)=7 maxe(1)=7                  
 INPUT CARD>         kstate(1)=1,1,1                                                        
 INPUT CARD>         wstate(1)=1,1,1                                                        
 INPUT CARD>         iwgt=0 thrwgt=-1.0 krot=.f. kszdoe=.f. knospn=.f.                      
 INPUT CARD>         thrde=-1.0 edshft=0.02 $end                                            
 INPUT CARD> $data                                                                          
 INPUT CARD> NH3+ 3 states calculation at NH3 structure.                                    
 INPUT CARD> c1                                                                             
 INPUT CARD>N 7.0 -0.03737350800000001 0.031144515 -0.1693810082                            
 INPUT CARD>H 1.0 -0.350910465 1.0013030218 0.06296591610000002                             
 INPUT CARD>H 1.0 0.03121610800000002 -1.0691878658 0.2915732791                            
 INPUT CARD>H 1.0 0.839009288 -0.364878708 0.41484645110000007                              
 INPUT CARD>$end                                                                            
 INPUT CARD>--- OPTIMIZED RHF      MO-S --- GENERATED AT Mon Nov 14 16:47:08 2022           
 INPUT CARD>E=      -56.3825050291, E(NUC)=   11.8429239490                                 
 INPUT CARD> $VEC                                                                           
 INPUT CARD> 1  1-1.00134066E+00-2.25158504E-03 3.44925845E-03 0.00000000E+00 0.00000000E+00
 INPUT CARD> 1  2-2.13170927E-03 0.00000000E+00 0.00000000E+00 6.57129898E-04-6.87950443E-05
 INPUT CARD> 1  3-6.87950443E-05 1.37590089E-04 0.00000000E+00 0.00000000E+00 0.00000000E+00
 INPUT CARD> 1  4 3.25502815E-04-4.84772356E-04 3.62525460E-04-6.27912517E-04-3.45956485E-04
 INPUT CARD> 1  5 3.25502815E-04-4.84772356E-04 3.62525460E-04 6.27912517E-04-3.45956485E-04
 INPUT CARD> 1  6 3.25502815E-04-4.84772356E-04-7.25050921E-04 0.00000000E+00-3.45956485E-04
 INPUT CARD> 2  1 1.31286642E-02-4.05911371E-01-2.82090992E-01 0.00000000E+00 0.00000000E+00
 INPUT CARD> 2  2-7.71489043E-02 0.00000000E+00 0.00000000E+00 9.73717494E-03 6.62450916E-04
 INPUT CARD> 2  3 6.62450916E-04-1.32490183E-03 0.00000000E+00 0.00000000E+00 0.00000000E+00
 INPUT CARD> 2  4-1.96090317E-01-1.96656153E-02-1.74855877E-02 3.02859263E-02 8.68214399E-03
 INPUT CARD> 2  5-1.96090317E-01-1.96656153E-02-1.74855877E-02-3.02859263E-02 8.68214399E-03
 INPUT CARD> 2  6-1.96090317E-01-1.96656153E-02 3.49711754E-02 0.00000000E+00 8.68214399E-03
 INPUT CARD> 3  1 0.00000000E+00 0.00000000E+00 0.00000000E+00 4.48608762E-01 0.00000000E+00
 INPUT CARD> 3  2 0.00000000E+00 2.18692520E-01 0.00000000E+00 0.00000000E+00 1.30198027E-02
 INPUT CARD> 3  3-1.30198027E-02 0.00000000E+00 0.00000000E+00 2.71832968E-02 0.00000000E+00
 INPUT CARD> 3  4-1.85332726E-01-7.03958951E-02 8.47929477E-03 1.95242443E-02 8.32835058E-03
 INPUT CARD> 3  5-1.85332726E-01-7.03958951E-02 8.47929477E-03-1.95242443E-02 8.32835058E-03
 INPUT CARD> 3  6 3.70665453E-01 1.40791790E-01-2.53376884E-02 0.00000000E+00-1.66567012E-02
 INPUT CARD> 4  1 0.00000000E+00 0.00000000E+00 0.00000000E+00 0.00000000E+00 4.48608762E-01
 INPUT CARD> 4  2 0.00000000E+00 0.00000000E+00 2.18692520E-01 0.00000000E+00 0.00000000E+00
 INPUT CARD> 4  3 0.00000000E+00 0.00000000E+00-1.50339731E-02 0.00000000E+00 2.71832968E-02
 INPUT CARD> 4  4 3.21005698E-01 1.21929267E-01 1.95242443E-02-1.40653607E-02-1.44251263E-02
  100000000 WORDS OF MEMORY AVAILABLE

     BASIS OPTIONS
     -------------
     GBASIS=CCD          IGAUSS=       0      POLAR=NONE    
     NDFUNC=       0     NFFUNC=       0     DIFFSP=       F
     NPFUNC=       0      DIFFS=       F     BASNAM=        


     RUN TITLE
     ---------
  NH3+ 3 states calculation at NH3 structure.                                    

 THE POINT GROUP OF THE MOLECULE IS C1      
 THE ORDER OF THE PRINCIPAL AXIS IS     0

 ATOM      ATOMIC                      COORDINATES (BOHR)
           CHARGE         X                   Y                   Z
 N           7.0    -0.0706256893        0.0588545994       -0.3200836930
 H           1.0    -0.6631246251        1.8921883419        0.1189883280
 H           1.0     0.0589898905       -2.0204720958        0.5509936028
 H           1.0     1.5854976555       -0.6895207769        0.7839461196

          INTERNUCLEAR DISTANCES (ANGS.)
          ------------------------------

                1 N          2 H          3 H          4 H     

   1 N       0.0000000    1.0457046 *  1.1949539 *  1.1252568 *
   2 H       1.0457046 *  0.0000000    2.1178325 *  1.8455843 *
   3 H       1.1949539 *  2.1178325 *  0.0000000    1.0787852 *
   4 H       1.1252568 *  1.8455843 *  1.0787852 *  0.0000000  

  * ... LESS THAN  3.000


     ATOMIC BASIS SET
     ----------------
 THE CONTRACTED PRIMITIVE FUNCTIONS HAVE BEEN UNNORMALIZED
 THE CONTRACTED BASIS FUNCTIONS ARE NOW NORMALIZED TO UNITY

  SHELL TYPE  PRIMITIVE        EXPONENT          CONTRACTION COEFFICIENT(S)

 N         

      1   S       1          9046.0000000    0.000699617413
      1   S       2          1357.0000000    0.005386054630
      1   S       3           309.3000000    0.027391021189
      1   S       4            87.7300000    0.103150591982
      1   S       5            28.5600000    0.278570663317
      1   S       6            10.2100000    0.448294849454
      1   S       7             3.8380000    0.278085928395
      1   S       8             0.7466000    0.015431561233

      2   S       9          9046.0000000   -0.000304990096
      2   S      10          1357.0000000   -0.002408026379
      2   S      11           309.3000000   -0.011944448725
      2   S      12            87.7300000   -0.048925992909
      2   S      13            28.5600000   -0.134472724725
      2   S      14            10.2100000   -0.315112577700
      2   S      15             3.8380000   -0.242857832550
      2   S      16             0.7466000    1.094382206854

      3   S      17             0.2248000    1.000000000000

      4   P      18            13.5500000    0.058905676772
      4   P      19             2.9170000    0.320461106714
      4   P      20             0.7973000    0.753042061792

      5   P      21             0.2185000    1.000000000000

      6   D      22             0.8170000    1.000000000000

 H         

      7   S      23            13.0100000    0.033498726390
      7   S      24             1.9620000    0.234800801174
      7   S      25             0.4446000    0.813682957883

      8   S      26             0.1220000    1.000000000000

      9   P      27             0.7270000    1.000000000000

 H         

     10   S      28            13.0100000    0.033498726390
     10   S      29             1.9620000    0.234800801174
     10   S      30             0.4446000    0.813682957883

     11   S      31             0.1220000    1.000000000000

     12   P      32             0.7270000    1.000000000000

 H         

     13   S      33            13.0100000    0.033498726390
     13   S      34             1.9620000    0.234800801174
     13   S      35             0.4446000    0.813682957883

     14   S      36             0.1220000    1.000000000000

     15   P      37             0.7270000    1.000000000000

 TOTAL NUMBER OF BASIS SET SHELLS             =   15
 NUMBER OF CARTESIAN GAUSSIAN BASIS FUNCTIONS =   30
 NOTE: THIS RUN WILL RESTRICT THE MO VARIATION SPACE TO SPHERICAL HARMONICS.
 THE NUMBER OF ORBITALS KEPT IN THE VARIATIONAL SPACE WILL BE PRINTED LATER.
 NUMBER OF ELECTRONS                          =    9
 CHARGE OF MOLECULE                           =    1
 SPIN MULTIPLICITY                            =    2
 NUMBER OF OCCUPIED ORBITALS (ALPHA)          =    5
 NUMBER OF OCCUPIED ORBITALS (BETA )          =    4
 TOTAL NUMBER OF ATOMS                        =    4
 THE NUCLEAR REPULSION ENERGY IS       10.9612735013

     $CONTRL OPTIONS
     ---------------
 SCFTYP=MCSCF        RUNTYP=ENERGY       EXETYP=RUN     
 MPLEVL=       2     CITYP =NONE         CCTYP =NONE         VBTYP =NONE    
 DFTTYP=NONE         TDDFT =NONE    
 MULT  =       2     ICHARG=       1     NZVAR =       0     COORD =UNIQUE  
 PP    =NONE         RELWFN=NONE         LOCAL =NONE         NUMGRD=       F
 ISPHER=       1     NOSYM =       1     MAXIT =     200     UNITS =ANGS    
 PLTORB=       F     MOLPLT=       F     AIMPAC=       F     FRIEND=        
 NPRINT=       7     IREST =       0     GEOM  =INPUT   
 NORMF =       0     NORMP =       0     ITOL  =      20     ICUT  =       9
 INTTYP=RYSQUAD      GRDTYP=BEST         QMTTOL= 1.0E-05

     $SYSTEM OPTIONS
     ---------------
  REPLICATED MEMORY=   100000000 WORDS (ON EVERY NODE).
 DISTRIBUTED MEMDDI=        1000 MILLION WORDS IN AGGREGATE,
 MEMDDI DISTRIBUTED OVER   1 PROCESSORS IS  1000000000 WORDS/PROCESSOR.
 TOTAL MEMORY REQUESTED ON EACH PROCESSOR=  1100000000 WORDS.
 TIMLIM=      525600.00 MINUTES, OR     365.0 DAYS.
 PARALL= T  BALTYP=  DLB     KDIAG=    3  COREFL= F
 MXSEQ2=     300 MXSEQ3=     150  mem10=         0

          ----------------
          PROPERTIES INPUT
          ----------------

     MOMENTS            FIELD           POTENTIAL          DENSITY
 IEMOM =       1   IEFLD =       0   IEPOT =       0   IEDEN =       0
 WHERE =COMASS     WHERE =NUCLEI     WHERE =NUCLEI     WHERE =NUCLEI  
 OUTPUT=BOTH       OUTPUT=BOTH       OUTPUT=BOTH       OUTPUT=BOTH    
 IEMINT=       0   IEFINT=       0                     IEDINT=       0
                                                       MORB  =       0

     -------------------------------
     INTEGRAL TRANSFORMATION OPTIONS
     -------------------------------
     NWORD  =            0
     CUTOFF = 1.0E-09     MPTRAN =       0
     DIRTRF =       T     AOINTS =DUP     

          ----------------------
          MCSCF INPUT PARAMETERS
          ----------------------
 CONVERGER SELECTION: FOCAS = F  SOSCF = F  FULLNR = T  QUD = F  JACOBI = F
 SECULAR EQUATION METHOD CISTEP = GMCCI   
 --- GENERAL INPUT OPTIONS:
 MAXIT =     100  MICIT =       1  ACURCY= 1.000E-06
 DAMP  =   0.000  CANONC=       T  ENGTOL= 1.000E-10
 EKT   =       F  NPUNCH=       2  NWORD =         0
 REGENERATE CI AFTER CONVERGENCE = NONE    
 DIABATIZATION AFTER CONVERGENCE =        F
 --- INPUT FOR FULLNR CONVERGER:
 METHOD=DM2       FORS  =       F  DROPC =       T
 LINSER=       F  FCORE =       F  NORB  =      30

          ----------------------
          INTEGRAL INPUT OPTIONS
          ----------------------
 NOPK  =       1 NORDER=       0 SCHWRZ=       T

 ------------------------------------------
 MULTIREFERENCE PERTURBATION THEORY CONTROL
 ------------------------------------------
 MRPT=GMCPT    READ CONVERGED MCSCF VECTORS= F


     ------------------------------------------
     THE POINT GROUP IS C1 , NAXIS= 1, ORDER= 1
     ------------------------------------------

 -- VARIATIONAL SPACE WILL BE RESTRICTED TO PURE SPHERICAL HARMONICS ONLY --
 AFTER EXCLUDING CONTAMINANT COMBINATIONS FROM THE CARTESIAN GAUSSIAN BASIS
 SET, THE NUMBER OF SPHERICAL HARMONICS KEPT IN THE VARIATION SPACE IS   29

     DIMENSIONS OF THE SYMMETRY SUBSPACES ARE
 A   =   29

 ..... DONE SETTING UP THE RUN .....
 CPU     0: STEP CPU TIME=     0.03 TOTAL CPU TIME=          0.0 (      0.0 MIN)
 TOTAL WALL CLOCK TIME=          0.1 SECONDS, CPU UTILIZATION IS    60.00%

          ********************
          1 ELECTRON INTEGRALS
          ********************
 TIME TO DO   DIPOLE INTEGRALS=      0.01
 ...... END OF ONE-ELECTRON INTEGRALS ......
 CPU     0: STEP CPU TIME=     0.01 TOTAL CPU TIME=          0.0 (      0.0 MIN)
 TOTAL WALL CLOCK TIME=          0.1 SECONDS, CPU UTILIZATION IS    80.00%

          -------------
          GUESS OPTIONS
          -------------
          GUESS =MOREAD            NORB  =      29          NORDER=       0
          MIX   =       F          PRTMO =       F          PUNMO =       F
          TOLZ  = 1.0E-08          TOLE  = 1.0E-05
          SYMDEN=       F          PURIFY=       T

 INITIAL GUESS ORBITALS GENERATED BY MOREAD   ROUTINE.

 STATISTICS FOR GENERATION OF SYMMETRY ORBITAL -Q- MATRIX
 NUMBER OF CARTESIAN ATOMIC ORBITALS=         30
 NUMBER OF SPHERICAL CONTAMINANTS DROPPED=     1
 NUMBER OF LINEARLY DEPENDENT MOS DROPPED=     0
 TOTAL NUMBER OF MOS IN VARIATION SPACE=      29
 ORBITAL PURIFICATION WILL OCCUR

 SYMMETRIES FOR INITIAL GUESS ORBITALS FOLLOW.   BOTH SET(S).
     5 ORBITALS ARE OCCUPIED (    1 CORE ORBITALS).
     1=A        2=A        3=A        4=A        5=A        6=A        7=A   
     8=A        9=A       10=A       11=A       12=A       13=A       14=A   
    15=A       16=A       17=A       18=A       19=A       20=A       21=A   
    22=A       23=A       24=A       25=A       26=A       27=A       28=A   
    29=A   
 ...... END OF INITIAL ORBITAL SELECTION ......
 CPU     0: STEP CPU TIME=     0.01 TOTAL CPU TIME=          0.0 (      0.0 MIN)
 TOTAL WALL CLOCK TIME=          0.1 SECONDS, CPU UTILIZATION IS   100.00%

                    ----------------------
                    AO INTEGRAL TECHNOLOGY
                    ----------------------
     S,P,L SHELL ROTATED AXIS INTEGRALS, REPROGRAMMED BY
        KAZUYA ISHIMURA (IMS) AND JOSE SIERRA (SYNSTAR).
     S,P,D,L SHELL ROTATED AXIS INTEGRALS PROGRAMMED BY
        KAZUYA ISHIMURA (INSTITUTE FOR MOLECULAR SCIENCE).
     S,P,D,F,G SHELL TO TOTAL QUARTET ANGULAR MOMENTUM SUM 5,
        ERIC PROGRAM BY GRAHAM FLETCHER (ELORET AND NASA ADVANCED
        SUPERCOMPUTING DIVISION, AMES RESEARCH CENTER).
     S,P,D,F,G,L SHELL GENERAL RYS QUADRATURE PROGRAMMED BY
        MICHEL DUPUIS (PACIFIC NORTHWEST NATIONAL LABORATORY).

          --------------------
          2 ELECTRON INTEGRALS
          --------------------

 DIRECT SCF METHOD SKIPS INTEGRAL STORAGE ON DISK.
 DIRECT TRANSFORMATION SKIPS AO INTEGRAL STORAGE ON DISK.
  ...... END OF TWO-ELECTRON INTEGRALS .....
 STEP CPU TIME =     0.02 TOTAL CPU TIME =          0.1 (      0.0 MIN)
 TOTAL WALL CLOCK TIME=          0.1 SECONDS, CPU UTILIZATION IS    87.50%
 DDI: Creating Array [0] - 900 x 36 = 32400 words.
 DDI: Creating Array [1] - 21 x 288 = 6048 words.
 DDI: Creating Array [2] - 36 x 36 = 1296 words.
 DDI: Creating Array [3] - 465 x 36 = 16740 words.

          -----------------
          MCSCF CALCULATION
          -----------------

 ----- NUCLEAR ENERGY ----- =        10.9612735013

     -------------------------------------------------
     GMC-PT/GMC-QDPT or general MCSCF input parameters
     -------------------------------------------------
 # of frozen core orbs. =         0 ->         0
 # of doubly occ. orbs. =         1
 # of active      orbs. =         7
 # of virtual     orbs. =        21
 # of active electrons  =         7
 # of states in CI      =         3
 Highest state in CI    =         3
 kstate =  1 1 1
 avecoe =  0.333 0.333 0.333
 State symmetry           = A           
 Assigned symmetry number = 1

 <<<Act. MO sym.: 1111111

 <<<Division of 1-ext.:  0
 <<<Division of 2-ext.:  0

 *** Reference space

 Reference type: ORMAS (= Occupation restricted multiple active space)
 # of orbitals          =  7
 # of minimum electrons =  7
 # of maximum electrons =  7
 State symmetry    =    1 (input)
 2*Sz              =    1 (input)
 Spin multiplicity =    2 (input)
 Dimension of reference space =      1225  (from      3432 walks)

 Dimension of reference space =      1225  (from      1225 walks)

 <<<Ionized spaces for Ref-CI:
      0:         1225 /   -1-0:         1960 /  0-1-0:         2891

 EVALUATING EXCHANGE INTEGRALS FOR DIRECT INTEGRAL TRANSFORMATION
 SCHWARZ INEQUALITY OVERHEAD:       465 INTEGRALS, T=        0.00

     --------------------------------------------
     PARTIAL TWO ELECTRON INTEGRAL TRANSFORMATION
     --------------------------------------------

 NUMBER OF CORE MOLECULAR ORBITALS     =    1
 NUMBER OF OCCUPIED MOLECULAR ORBITALS =    8
 TOTAL NUMBER OF MOLECULAR ORBITALS    =   29
 TOTAL NUMBER OF ATOMIC ORBITALS       =   30
 THRESHOLD FOR KEEPING TRANSFORMED 2E- INTEGRALS = 1.000E-09

 -------------------------------     ------------------------------
 DISTRIBUTED DATA TRANSFORMATION     PROGRAM WRITTEN BY G. FLETCHER
 -------------------------------     ------------------------------

 THE DISTRIBUTED MEMORY REQUIRED FOR THIS STEP IS MEMDDI=         1 MWORDS
 CREATING DISTRIBUTED STORAGE FOR [VIR OCC|VIR OCC] INTEGRALS
 CREATING DISTRIBUTED STORAGE FOR [VIR OCC|OCC OCC] INTEGRALS
 CREATING DISTRIBUTED STORAGE FOR [OCC OCC|OCC OCC] INTEGRALS
 CREATING DISTRIBUTED STORAGE FOR [VIR VIR|OCC OCC] INTEGRALS
 FOR    1 PROCESSORS, THE REPLICATED MEMORY NEEDED IS       73700 WORDS.
 SCHWARZ INEQUALITY OVERHEAD:       465 INTEGRALS, T=        0.00

      DIRECT 4-INDEX TRANSFORMATION 
      SCHWARZ INEQUALITY TEST SKIPPED          0 INTEGRAL BLOCKS
 ----- FROZEN CORE ENERGY =       -47.5702500518
 ... END OF INTEGRAL TRANSFORMATION ...
 CPU     0: STEP CPU TIME=     0.21 TOTAL CPU TIME=          0.3 (      0.0 MIN)
 TOTAL WALL CLOCK TIME=          0.3 SECONDS, CPU UTILIZATION IS    93.33%

     --------------------------------     -----------------------------
     MCHF NEWTON-RAPHSON OPTIMIZATION     CODE WRITTEN BY MICHEL DUPUIS
     --------------------------------     -----------------------------
     PARALLEL VERSION WRITTEN BY G. FLETCHER (ELORET)
     NASA ADVANCED SUPERCOMPUTING DIVISION, AMES RESEARCH CENTER

 NUMBER OF INDEPENDENT ORBITAL ROTATION PARAMETERS =   175
 ..... DONE SOLVING NEWTON-RAPHSON EQUATIONS .....
 CPU     0: STEP CPU TIME=     0.78 TOTAL CPU TIME=          1.1 (      0.0 MIN)
 TOTAL WALL CLOCK TIME=          1.1 SECONDS, CPU UTILIZATION IS    99.07%
 ..... DONE WITH NTN-RPH ORBITAL ROTATIONS ..... 
 CPU     0: STEP CPU TIME=     0.00 TOTAL CPU TIME=          1.1 (      0.0 MIN)
 TOTAL WALL CLOCK TIME=          1.1 SECONDS, CPU UTILIZATION IS    99.07%
 MAXIMUM MEMORY USED BY NTN-RPH CODE WAS     57645 WORDS.

 ITER     TOTAL ENERGY      DEL(E)  LAGRANGIAN ASYMMETRY   SQCDF  MICIT   DAMP
   1      -55.562972250 -0.562972250  0.120068    9    3 9.383E-02  1   0.0000
   2      -55.628092833 -0.065120583  0.020242   12    5 4.581E-01  1   0.0000
   3      -55.665340525 -0.037247692  0.014468   11    6 2.423E-01  1   0.0172
   4      -55.682906840 -0.017566315  0.005051   11    6 5.528E-02  1   0.0066
   5      -55.685615194 -0.002708355  0.000949   13    5 1.835E-03  1   0.0000
   6      -55.685711819 -0.000096624  0.000448   22    5 1.731E-04  1   0.0000
   7      -55.685723197 -0.000011379  0.000219   22    5 3.615E-05  1   0.0000
   8      -55.685725672 -0.000002475  0.000111   22    5 9.247E-06  1   0.0000
   9      -55.685726306 -0.000000634  0.000057   22    5 2.675E-06  1   0.0000
  10      -55.685726486 -0.000000180  0.000029   22    5 8.458E-07  1   0.0000
  11      -55.685726542 -0.000000055  0.000015   22    5 2.851E-07  1   0.0000
  12      -55.685726560 -0.000000018  0.000008   22    5 1.006E-07  1   0.0000
  13      -55.685726566 -0.000000006  0.000004   22    5 3.664E-08  1   0.0000
  14      -55.685726568 -0.000000002  0.000002   23    5 1.369E-08  1   0.0000
  15      -55.685726569 -0.000000001  0.000002   12    8 5.170E-09  1   0.0000
  16      -55.685726570 -0.000000000  0.000001   12    8 1.995E-09  1   0.0000

          --------------------
          LAGRANGIAN CONVERGED
          --------------------

 FINAL MCSCF ENERGY IS      -55.6857265695 AFTER  16 ITERATIONS

 -MCCI- BASED ON OPTIMIZED ORBITALS
 ----------------------------------

 PLEASE NOTE: IF THE ACTIVE ORBITALS ARE CANONICALIZED BELOW,
 THE FOLLOWING CI EXPANSION COEFFICIENTS AND THE DENSITY DO NOT
 CORRESPOND TO THE PRINTED ORBITALS.  THE PRINTED EXPANSIONS MATCH
 THE ORBITALS USED DURING THE LAST ITERATION.  IF YOU WISH TO SEE
 CI EXPANSIONS BASED ON THE CANONICAL (OR NATURAL) ORBITALS, YOU
 MUST RUN A CI CALCULATION WITH THAT ORBITAL CHOICE READ IN $VEC.

 Averaged energy =     -55.685726570

 State #    1  Energy =     -55.818964780  S =  0.500

      Det      Coef    Occupancy (Ignoring core)
      ---      ----    --------- --------- -----
        1    0.899570  11110001110000
        5   -0.071808  01111001110000
        8   -0.142996  10110101110000
       17   -0.128231  11010011110000
       71   -0.281094  11110001011000
      211    0.053152  11110000110100
      386    0.097940  11110001010010
      393    0.067766  10110101010010
      701    0.106802  11110001100001

 State #    2  Energy =     -55.734172011  S =  0.500

      Det      Coef    Occupancy (Ignoring core)
      ---      ----    --------- --------- -----
        1    0.246532  11110001110000
       36   -0.499824  11110001101000
       43    0.065668  10110101101000
       52    0.053474  11010011101000
       71    0.771108  11110001011000
       74   -0.068418  10111001011000
       75   -0.061274  01111001011000
       78   -0.098359  10110101011000
       87   -0.091506  11010011011000
      386    0.068999  11110001010010
      456   -0.055942  11110001001010
      806   -0.074056  11110001001001

 State #    3  Energy =     -55.504042918  S =  0.500

      Det      Coef    Occupancy (Ignoring core)
      ---      ----    --------- --------- -----
        1   -0.127234  11110001110000
       36   -0.814255  11110001101000
       43    0.076117  10110101101000
       71   -0.480697  11110001011000
       74    0.052683  10111001011000
      281   -0.073155  11110000101100
      456   -0.099498  11110001001010
      463   -0.063505  10110101001010

 DENSITY MATRIX OVER ACTIVE MO-S

             1           2           3           4           5

    1    1.9715356
    2    0.0212206   1.6184768
    3    0.0000113  -0.0083941   1.6302944
    4    0.0001568   0.0044264   0.0025511   1.6490881
    5    0.1108033  -0.0768518   0.0136735  -0.0237517   0.0423463
    6    0.0044518  -0.1762733  -0.0104115   0.0621104   0.0091954
    7   -0.0138318   0.0053684   0.1516590   0.0116566  -0.0045584

             6           7

    6    0.0510742
    7   -0.0064635   0.0371846

 FORMING THE "STANDARD FOCK OPERATOR" IN DIRECT AO INTEGRAL MODE...
 ONLY THE    1 CORE AND   21 VIRTUAL ORBITALS WILL BE CANONICALIZED

          ----------------------
          MCSCF NATURAL ORBITALS
          ----------------------

                      1          2          3          4          5
                  -15.9834     1.9788     1.6544     1.6480     1.6355
                     A          A          A          A          A   
    1  N  1  S    1.001056   0.008842  -0.007620  -0.005518  -0.002006
    2  N  1  S   -0.001929   0.432999  -0.099199  -0.171150  -0.030579
    3  N  1  S   -0.006305   0.338932  -0.183047  -0.238776  -0.049235
    4  N  1  X    0.000021   0.038995  -0.186939   0.178622   0.480726
    5  N  1  Y    0.000241  -0.008906   0.285165  -0.254325   0.283432
    6  N  1  Z    0.001164   0.081221   0.468138   0.338643  -0.035838
    7  N  1  X   -0.000079   0.007069  -0.104591   0.054408   0.292777
    8  N  1  Y    0.000086  -0.006369   0.118050  -0.059716   0.158933
    9  N  1  Z   -0.000615   0.018540   0.325057   0.204962  -0.040954
   10  N  1 XX   -0.000127  -0.002945  -0.012785  -0.002540   0.011864
   11  N  1 YY    0.000329   0.003599  -0.004788  -0.011758  -0.010191
   12  N  1 ZZ   -0.000202  -0.000653   0.017573   0.014298  -0.001672
   13  N  1 XY   -0.000308  -0.003542  -0.000543  -0.001054  -0.001208
   14  N  1 XZ    0.000075   0.002339  -0.004104   0.011214   0.020379
   15  N  1 YZ    0.000016  -0.002573   0.010801  -0.011733   0.012056
   16  H  2  S   -0.001868   0.166703   0.302136  -0.220677   0.046722
   17  H  2  S    0.000682  -0.001377   0.047882  -0.017291  -0.004107
   18  H  2  X   -0.000320   0.012185   0.007038  -0.004232   0.021561
   19  H  2  Y    0.000962  -0.029987  -0.032522   0.025345  -0.001272
   20  H  2  Z    0.000294  -0.002169   0.010126   0.019503  -0.002494
   21  H  3  S   -0.001264   0.165774  -0.051104   0.238146  -0.269080
   22  H  3  S    0.000278  -0.000330   0.010340   0.033657  -0.119013
   23  H  3  X   -0.000006   0.000603  -0.004635   0.012228   0.015992
   24  H  3  Y   -0.000653   0.028386  -0.004744   0.027712  -0.026158
   25  H  3  Z    0.000348  -0.007227   0.023435   0.004784   0.008644
   26  H  4  S   -0.001550   0.203127  -0.022750   0.296774   0.244043
   27  H  4  S    0.000278   0.008265   0.014516   0.056068   0.114577
   28  H  4  X    0.000738  -0.031375  -0.005732  -0.031077  -0.009503
   29  H  4  Y   -0.000266   0.010851   0.006466  -0.006127   0.019696
   30  H  4  Z    0.000481  -0.015555   0.023185  -0.002630  -0.018186

                      6          7          8
                    0.0355     0.0290     0.0189
                     A          A          A   
    1  N  1  S   -0.125369  -0.071103   0.144154
    2  N  1  S   -0.461423  -0.294771   0.426495
    3  N  1  S   -0.116740  -0.207028  -0.026913
    4  N  1  X    0.361202  -0.654364  -0.203669
    5  N  1  Y    0.367528   0.052370   0.831283
    6  N  1  Z   -0.383460  -0.445338   0.173802
    7  N  1  X   -0.103761  -0.017818  -0.039809
    8  N  1  Y    0.011580   0.109799   0.093850
    9  N  1  Z    0.028458  -0.014104  -0.093447
   10  N  1 XX   -0.056608   0.018840   0.007783
   11  N  1 YY    0.060363  -0.020957  -0.031588
   12  N  1 ZZ   -0.003755   0.002117   0.023805
   13  N  1 XY   -0.023751  -0.031568  -0.010457
   14  N  1 XZ    0.010097   0.031859  -0.004089
   15  N  1 YZ   -0.024322  -0.018686  -0.039036
   16  H  2  S    0.312244   0.076539  -0.817470
   17  H  2  S    0.039836  -0.016048  -0.154589
   18  H  2  X    0.001596   0.012040  -0.027020
   19  H  2  Y   -0.033943  -0.015677   0.076546
   20  H  2  Z   -0.001535   0.001837  -0.028588
   21  H  3  S    0.725024  -0.036487   0.275329
   22  H  3  S    0.224035  -0.108878   0.094891
   23  H  3  X   -0.006690   0.042801   0.015996
   24  H  3  Y    0.065481  -0.001751   0.017326
   25  H  3  Z    0.010238   0.028961   0.007235
   26  H  4  S   -0.109719   0.810634   0.024757
   27  H  4  S   -0.134045   0.234524  -0.016871
   28  H  4  X   -0.016507  -0.053375   0.003855
   29  H  4  Y   -0.035326   0.000694  -0.036649
   30  H  4  Z    0.026740  -0.007150   0.005341

          ------------------------
          MCSCF OPTIMIZED ORBITALS
          ------------------------

                      1          2          3          4          5
                  -15.9834     0.0000     0.0000     0.0000     0.0000
                     A          A          A          A          A   
    1  N  1  S    1.001056  -0.000854   0.014346  -0.010204  -0.009915
    2  N  1  S   -0.001929   0.398923  -0.007063   0.008338  -0.181929
    3  N  1  S   -0.006305   0.329334  -0.084336   0.019560  -0.281267
    4  N  1  X    0.000021   0.012786   0.450199   0.082011  -0.034850
    5  N  1  Y    0.000241   0.003134   0.003229   0.389382   0.038153
    6  N  1  Z    0.001164   0.049876   0.012239   0.003553   0.589089
    7  N  1  X   -0.000079  -0.011182   0.297355   0.103251  -0.064684
    8  N  1  Y    0.000086  -0.004902   0.061227   0.188300   0.041762
    9  N  1  Z   -0.000615   0.023757  -0.044651   0.023346   0.386054
   10  N  1 XX   -0.000127  -0.005667   0.018825   0.004586  -0.013435
   11  N  1 YY    0.000329   0.006581  -0.020631  -0.002230  -0.008732
   12  N  1 ZZ   -0.000202  -0.000914   0.001806  -0.002356   0.022167
   13  N  1 XY   -0.000308  -0.005511  -0.001508   0.000621   0.000236
   14  N  1 XZ    0.000075   0.002866   0.023626   0.004631   0.001430
   15  N  1 YZ    0.000016  -0.003837  -0.001416   0.023578   0.001901
   16  H  2  S   -0.001868   0.201346  -0.242957   0.367624   0.112909
   17  H  2  S    0.000682   0.003082  -0.041564   0.042400   0.030909
   18  H  2  X   -0.000320   0.012408   0.011691   0.021835   0.001736
   19  H  2  Y    0.000962  -0.033983   0.028316  -0.037412  -0.010869
   20  H  2  Z    0.000294  -0.002018   0.003274  -0.005562   0.020498
   21  H  3  S   -0.001264   0.198110  -0.114299  -0.387253   0.120714
   22  H  3  S    0.000278   0.009147  -0.099837  -0.108195   0.039067
   23  H  3  X   -0.000006   0.000607   0.024103   0.000392   0.001026
   24  H  3  Y   -0.000653   0.031323  -0.008192  -0.039247   0.014736
   25  H  3  Z    0.000348  -0.005787   0.001779   0.014116   0.019770
   26  H  4  S   -0.001550   0.208248   0.414878  -0.013350   0.118232
   27  H  4  S    0.000278   0.004927   0.137248   0.057980   0.030126
   28  H  4  X    0.000738  -0.032948  -0.024073   0.008705  -0.021081
   29  H  4  Y   -0.000266   0.009170   0.011718   0.023526   0.000621
   30  H  4  Z    0.000481  -0.013407  -0.026706   0.000327   0.018039

                      6          7          8          9         10
                    0.0000     0.0000     0.0000     0.1139     0.1978
                     A          A          A          A          A   
    1  N  1  S    0.174856  -0.067287   0.078824  -0.087315   0.034308
    2  N  1  S    0.664892  -0.181736   0.204422  -0.122080   0.037874
    3  N  1  S    0.236031   0.109791  -0.046906   1.018121  -0.477259
    4  N  1  X    0.072529   0.820131   0.104654  -0.036376  -0.022621
    5  N  1  Y   -0.074779  -0.191880   0.927233   0.022575   0.153319
    6  N  1  Z    0.602030   0.050603   0.051107  -0.113752   0.042211
    7  N  1  X    0.062923   0.013204  -0.069375   0.167852   0.245662
    8  N  1  Y   -0.054679  -0.109866   0.088122  -0.170485  -0.738394
    9  N  1  Z   -0.039071   0.043981  -0.061903   0.287670  -0.035769
   10  N  1 XX    0.030657  -0.043898  -0.022008  -0.020253   0.032225
   11  N  1 YY   -0.038023   0.057896   0.003286   0.055090  -0.072302
   12  N  1 ZZ    0.007366  -0.013997   0.018722  -0.034837   0.040077
   13  N  1 XY    0.034209   0.016084  -0.014945  -0.062556   0.034105
   14  N  1 XZ   -0.029552  -0.014873  -0.003552   0.046627   0.030100
   15  N  1 YZ    0.019039   0.017822  -0.040180  -0.041146  -0.079827
   16  H  2  S   -0.472900   0.408259  -0.551176   0.280946  -0.550543
   17  H  2  S   -0.058724   0.090708  -0.110390  -0.459593   1.942620
   18  H  2  X   -0.015767   0.004089  -0.022861  -0.034660   0.036372
   19  H  2  Y    0.051922  -0.033480   0.050665   0.052108  -0.129843
   20  H  2  Z   -0.008382   0.009106  -0.026415  -0.026438  -0.065756
   21  H  3  S   -0.421217   0.264877   0.545503   0.431284   0.177359
   22  H  3  S   -0.065772   0.145348   0.194214  -0.872025  -0.602183
   23  H  3  X   -0.018908  -0.040035   0.004107   0.059929   0.015028
   24  H  3  Y   -0.040474   0.025854   0.041944  -0.040866  -0.024745
   25  H  3  Z   -0.024382  -0.020280   0.007896   0.038571   0.062328
   26  H  4  S   -0.433956  -0.644433  -0.161022   0.384192   0.164382
   27  H  4  S   -0.060627  -0.226206  -0.108763  -0.910765  -0.550904
   28  H  4  X    0.046417   0.029027   0.005213   0.035082   0.005174
   29  H  4  Y    0.015652  -0.002124  -0.046388  -0.095399  -0.005512
   30  H  4  Z   -0.013348   0.013337   0.018368   0.047733   0.045214

                     11         12         13         14         15
                    0.2654     0.5264     0.5777     0.6702     0.8708
                     A          A          A          A          A   
    1  N  1  S    0.011021  -0.107539  -0.026508   0.035788  -0.587447
    2  N  1  S    0.027005  -0.142029   0.028514   0.051265  -1.316248
    3  N  1  S   -0.072100   0.766833   0.472707  -0.119439   2.224980
    4  N  1  X    0.019717   0.443310  -0.527802  -0.022362  -0.063867
    5  N  1  Y    0.050154  -0.004777  -0.164147  -0.470364   0.106120
    6  N  1  Z    0.007900  -0.610553  -0.385892   0.190559   0.282027
    7  N  1  X   -0.350404  -0.751033   1.272837  -0.352559   0.113644
    8  N  1  Y   -0.330811   0.224452   0.168903   1.806363  -0.124565
    9  N  1  Z   -0.067534   0.813413   0.764761  -0.477328  -0.142891
   10  N  1 XX   -0.063891  -0.010110  -0.012767  -0.044364  -0.014801
   11  N  1 YY    0.070795  -0.013792  -0.001782   0.017198   0.005388
   12  N  1 ZZ   -0.006904   0.023902   0.014549   0.027165   0.009413
   13  N  1 XY    0.034326   0.018096   0.046937   0.034479   0.092390
   14  N  1 XZ   -0.052696   0.004480  -0.003435   0.010817   0.031554
   15  N  1 YZ   -0.020441  -0.007576  -0.005470  -0.083436   0.027285
   16  H  2  S    0.079998  -0.511418  -0.206815  -0.546838  -0.153929
   17  H  2  S   -0.133499  -0.349488   0.216866  -0.626237  -0.496796
   18  H  2  X    0.038752  -0.017103   0.095434   0.001577   0.091832
   19  H  2  Y   -0.004326   0.075584   0.016883   0.190143   0.127345
   20  H  2  Z    0.001811   0.025708   0.042843  -0.153903   0.139851
   21  H  3  S    0.595917  -0.233930   0.035417   0.595322  -0.017198
   22  H  3  S   -2.100972  -0.294564   0.539358   0.512744  -0.368199
   23  H  3  X   -0.073919  -0.074440  -0.094102  -0.064709  -0.254020
   24  H  3  Y   -0.074680  -0.004393  -0.039969   0.236170  -0.119838
   25  H  3  Z   -0.002467   0.128527   0.019088   0.130131   0.069628
   26  H  4  S   -0.632007  -0.007201  -0.607621   0.224143  -0.000258
   27  H  4  S    2.203964   0.291171  -0.898810   0.112881  -0.318540
   28  H  4  X   -0.098329  -0.025650   0.104752  -0.212262   0.147093
   29  H  4  Y   -0.039700   0.084291  -0.025575   0.027107   0.198750
   30  H  4  Z   -0.029921   0.075240   0.115710   0.082310   0.177172

                     16         17         18         19         20
                    1.0653     1.0922     1.2214     1.3037     1.4378
                     A          A          A          A          A   
    1  N  1  S    0.039060  -0.316130  -0.043798  -0.218770  -0.366402
    2  N  1  S    0.065887  -0.654392  -0.087989  -0.467435  -0.791227
    3  N  1  S   -0.142194   1.395911   0.204516   0.817572   1.151658
    4  N  1  X    0.008631  -0.037258   0.079733   0.057002  -0.058528
    5  N  1  Y   -0.131386  -0.159227  -0.185758   0.073081   0.096185
    6  N  1  Z   -0.061202   0.029783  -0.021758   0.001230  -0.093420
    7  N  1  X   -0.271687   0.170900  -0.615978  -0.202031   0.420958
    8  N  1  Y    0.779131   0.718972   0.870826  -0.041715  -0.170832
    9  N  1  Z    0.262217   0.153096  -0.029637   0.337425   0.614299
   10  N  1 XX    0.219659   0.074289  -0.062826   0.071802  -0.089545
   11  N  1 YY    0.049789  -0.129273   0.077544   0.040028   0.075697
   12  N  1 ZZ   -0.269448   0.054985  -0.014718  -0.111830   0.013848
   13  N  1 XY    0.050750  -0.167781   0.067281   0.075725  -0.118920
   14  N  1 XZ   -0.020847  -0.183784   0.203305  -0.144210  -0.058196
   15  N  1 YZ   -0.044837  -0.009306   0.162968  -0.119086  -0.055530
   16  H  2  S   -0.350912  -0.506991  -0.526923  -0.185487  -0.210322
   17  H  2  S   -0.186652  -0.395008  -0.264608  -0.114135  -0.063524
   18  H  2  X   -0.164126  -0.453761   0.423502   0.511579  -0.252069
   19  H  2  Y    0.014772  -0.138414   0.003442   0.188080  -0.070852
   20  H  2  Z   -0.199531   0.332249   0.336252  -0.157341  -0.623761
   21  H  3  S    0.464519   0.107277   0.290978  -0.384231  -0.449020
   22  H  3  S    0.073826   0.050064   0.054230   0.037051   0.135694
   23  H  3  X   -0.203224   0.301522   0.433158   0.051686   0.224790
   24  H  3  Y   -0.151055  -0.125614  -0.243581   0.287343   0.113620
   25  H  3  Z   -0.357377   0.162262  -0.525415   0.102105  -0.546380
   26  H  4  S    0.236786  -0.340472   0.183553  -0.119817  -0.497846
   27  H  4  S    0.023191  -0.184656   0.103454  -0.088571  -0.206611
   28  H  4  X    0.316035   0.019430  -0.097971   0.243546  -0.190355
   29  H  4  Y    0.193921  -0.243760  -0.039740  -0.549360  -0.007801
   30  H  4  Z   -0.499085  -0.252352   0.032323  -0.381307   0.256848

                     21         22         23         24         25
                    1.5985     1.7170     1.8709     1.9551     2.1427
                     A          A          A          A          A   
    1  N  1  S    0.128890   0.056739   0.118408   0.004602   0.023417
    2  N  1  S    0.245682   0.235873   0.259320   0.030831   0.058443
    3  N  1  S   -0.624487   0.845124   0.202048   0.182531   0.139717
    4  N  1  X    0.179220   0.258784  -0.174717  -0.009521   0.071285
    5  N  1  Y   -0.075489  -0.211488   0.532026  -0.043041   0.106065
    6  N  1  Z    0.014494   0.236378  -0.006071   0.014494   0.043146
    7  N  1  X    0.025544   0.100330  -0.113869  -0.212766   0.036507
    8  N  1  Y    0.772029  -0.200697   0.301213   0.045411   0.029903
    9  N  1  Z   -0.321251   0.314601   0.024690   0.246075   0.116601
   10  N  1 XX   -0.180566   0.055971   0.079723  -0.610466  -0.452095
   11  N  1 YY    0.080739  -0.060179  -0.140934  -0.201815   0.232375
   12  N  1 ZZ    0.099827   0.004208   0.061211   0.812281   0.219720
   13  N  1 XY    0.003753   0.121238   0.180230  -0.452310   0.318473
   14  N  1 XZ   -0.175843  -0.272028  -0.076102   0.026026   0.233050
   15  N  1 YZ   -0.113701   0.008440  -0.254133  -0.110183   0.111002
   16  H  2  S   -0.204730  -0.044021  -0.099256  -0.089226  -0.093702
   17  H  2  S    0.025160  -0.033559  -0.493972  -0.102391  -0.012772
   18  H  2  X   -0.174121  -0.110771  -0.338934   0.199292  -0.351080
   19  H  2  Y   -0.369144   0.283791   0.942727   0.237471   0.053095
   20  H  2  Z    0.422084  -0.344446   0.404696  -0.175584  -0.050075
   21  H  3  S    0.226290  -0.090330   0.001974  -0.054381   0.362618
   22  H  3  S    0.500267  -0.297111   0.109799  -0.172130   0.339524
   23  H  3  X   -0.427718   0.223273   0.055474  -0.219904   0.781340
   24  H  3  Y    0.439445  -0.633350   0.129104  -0.320263   0.600842
   25  H  3  Z   -0.458909   0.071579  -0.413752  -0.132774   0.210581
   26  H  4  S    0.439771  -0.064011  -0.002165   0.113104  -0.437785
   27  H  4  S   -0.302333  -0.345504   0.180476   0.119013  -0.380411
   28  H  4  X    0.283377   0.499953  -0.197031   0.169612   0.861666
   29  H  4  Y   -0.317117  -0.361629  -0.022943  -0.036781   0.520020
   30  H  4  Z    0.310158   0.556769  -0.053007  -0.388492  -0.139569

                     26         27         28         29
                    2.2162     2.5367     2.6646     2.9810
                     A          A          A          A   
    1  N  1  S    0.097549   0.086789  -0.133651  -0.064644
    2  N  1  S    0.156811   0.194100  -0.133038  -0.011708
    3  N  1  S   -0.741506   0.322886   1.683809   1.474113
    4  N  1  X    0.003305  -0.032692   0.242458  -0.248260
    5  N  1  Y    0.000408   0.380813  -0.062035   0.276090
    6  N  1  Z   -0.040216   0.073342   0.235329   0.118241
    7  N  1  X   -0.468102  -0.172155   0.684371  -0.352360
    8  N  1  Y   -0.195994   1.137513  -0.528559   0.403990
    9  N  1  Z   -0.363201  -0.004197   0.485022   0.161394
   10  N  1 XX    0.143576   0.250162   0.315067  -0.820705
   11  N  1 YY   -0.048765  -0.087984   0.060644   1.444612
   12  N  1 ZZ   -0.094812  -0.162179  -0.375712  -0.623908
   13  N  1 XY   -0.367073  -0.631475  -0.724985  -0.316712
   14  N  1 XZ   -0.679203  -0.071905   0.817076  -0.267477
   15  N  1 YZ   -0.336544   0.977067  -0.626591   0.019182
   16  H  2  S    0.184510  -0.943206  -0.161495  -1.284172
   17  H  2  S    0.116487  -0.409748   0.017292  -0.370764
   18  H  2  X    0.551547  -0.059557   0.021505  -0.407468
   19  H  2  Y   -0.022409   0.840407   0.185880   0.904835
   20  H  2  Z    0.194869  -0.060501   0.267777   0.377071
   21  H  3  S    0.334388   0.712151  -0.327126  -0.718301
   22  H  3  S    0.050106   0.388137  -0.039632  -0.190247
   23  H  3  X    0.514574  -0.118549   0.112046  -0.098430
   24  H  3  Y    0.233873   0.724050  -0.126208  -0.756133
   25  H  3  Z    0.019203  -0.145039   0.154580   0.392909
   26  H  4  S    0.137807  -0.129037  -1.244631   0.444694
   27  H  4  S    0.101960  -0.130061  -0.502240   0.103475
   28  H  4  X    0.133266   0.253579   0.912379  -0.399722
   29  H  4  Y    0.895809  -0.036378  -0.270714   0.043250
   30  H  4  Z    0.139772   0.195473   0.631532  -0.203998
 .....DONE WITH MCSCF ITERATIONS.....
 CPU     0: STEP CPU TIME=    10.89 TOTAL CPU TIME=         12.0 (      0.2 MIN)
 TOTAL WALL CLOCK TIME=         12.0 SECONDS, CPU UTILIZATION IS    99.92%

     ----------------------------------------------------------------
     PROPERTY VALUES FOR THE MCSCF SELF-CONSISTENT FIELD WAVEFUNCTION
     ----------------------------------------------------------------

          -----------------
          ENERGY COMPONENTS
          -----------------

         WAVEFUNCTION NORMALIZATION =       1.0000000000

                ONE ELECTRON ENERGY =     -93.4562794038
                TWO ELECTRON ENERGY =      26.8092793330
           NUCLEAR REPULSION ENERGY =      10.9612735013
                                      ------------------
                       TOTAL ENERGY =     -55.6857265695

 ELECTRON-ELECTRON POTENTIAL ENERGY =      26.8092793330
  NUCLEUS-ELECTRON POTENTIAL ENERGY =    -149.1082311674
   NUCLEUS-NUCLEUS POTENTIAL ENERGY =      10.9612735013
                                      ------------------
             TOTAL POTENTIAL ENERGY =    -111.3376783331
               TOTAL KINETIC ENERGY =      55.6519517635
                 VIRIAL RATIO (V/T) =       2.0006068935

          ---------------------------------------
          MULLIKEN AND LOWDIN POPULATION ANALYSES
          ---------------------------------------

     ATOMIC MULLIKEN POPULATION IN EACH MOLECULAR ORBITAL

                      1          2          3          4          5

                  2.000000   1.978778   1.654357   1.647989   1.635500

    1             2.000574   1.369336   1.348606   0.991213   1.225216
    2            -0.000273   0.171042   0.274818   0.184630   0.015317
    3            -0.000106   0.177583   0.019328   0.193988   0.231231
    4            -0.000195   0.260817   0.011605   0.278158   0.163736

                      6          7          8

                  0.035469   0.029029   0.018879

    1             0.015706   0.014580   0.010041
    2             0.002884   0.000048   0.007923
    3             0.016756   0.000083   0.000852
    4             0.000122   0.014319   0.000063
 WARNING! MCSCF POPULATIONS SHOWN ABOVE ARE FOR THE NATURAL ORBITALS.
 IGNORE THE ABOVE DATA FOR MCSCF FUNCTIONS WHICH ARE NOT OF -FORS- TYPE.
 THE FOLLOWING POPULATIONS ARE CORRECT FOR ANY MCSCF WAVEFUNCTION.

               ----- POPULATIONS IN EACH AO -----
                             MULLIKEN      LOWDIN
              1  N  1  S      2.00220     1.90454
              2  N  1  S      0.81721     0.58084
              3  N  1  S      0.71776     0.41807
              4  N  1  X      0.75043     0.69307
              5  N  1  Y      0.63148     0.55298
              6  N  1  Z      0.83483     0.78778
              7  N  1  X      0.41430     0.47967
              8  N  1  Y      0.27152     0.39670
              9  N  1  Z      0.52071     0.55945
             10  N  1 XX      0.00043     0.15511
             11  N  1 YY      0.00416     0.19049
             12  N  1 ZZ      0.00083     0.14436
             13  N  1 XY      0.00470     0.00419
             14  N  1 XZ      0.00471     0.00842
             15  N  1 YZ      0.00000     0.00934
             16  H  2  S      0.57303     0.44622
             17  H  2  S      0.02768     0.14790
             18  H  2  X      0.01162     0.02766
             19  H  2  Y      0.03395     0.06112
             20  H  2  Z      0.01011     0.02875
             21  H  3  S      0.52664     0.39927
             22  H  3  S      0.06194     0.15420
             23  H  3  X      0.01032     0.03707
             24  H  3  Y      0.02913     0.04796
             25  H  3  Z      0.01168     0.02611
             26  H  4  S      0.60884     0.46043
             27  H  4  S      0.06223     0.15354
             28  H  4  X      0.02780     0.05288
             29  H  4  Y      0.01232     0.03588
             30  H  4  Z      0.01744     0.03601

          ----- MULLIKEN ATOMIC OVERLAP POPULATIONS -----
          (OFF-DIAGONAL ELEMENTS NEED TO BE MULTIPLIED BY 2)

             1           2           3           4

    1    6.1988690
    2    0.3037058   0.3618488
    3    0.2282583  -0.0051904   0.4215483
    4    0.2444385  -0.0039748  -0.0049014   0.4930618

          TOTAL MULLIKEN AND LOWDIN ATOMIC POPULATIONS
       ATOM         MULL.POP.    CHARGE          LOW.POP.     CHARGE
    1 N             6.975272    0.024728         6.885006    0.114994
    2 H             0.656389    0.343611         0.711641    0.288359
    3 H             0.639715    0.360285         0.664616    0.335384
    4 H             0.728624    0.271376         0.738737    0.261263

          MULLIKEN SPHERICAL HARMONIC POPULATIONS
       ATOM           S       P       D      F      G      H      I    TOTAL
    1 N             3.54    3.42    0.01   0.00   0.00   0.00   0.00    6.98
    2 H             0.60    0.06    0.00   0.00   0.00   0.00   0.00    0.66
    3 H             0.59    0.05    0.00   0.00   0.00   0.00   0.00    0.64
    4 H             0.67    0.06    0.00   0.00   0.00   0.00   0.00    0.73

          ---------------------
          ELECTROSTATIC MOMENTS
          ---------------------

 POINT   1           X           Y           Z (BOHR)    CHARGE
                 0.000004   -0.000003   -0.177185        1.00 (A.U.)
         DX          DY          DZ         /D/  (DEBYE)
     0.748780   -0.617904    2.175848    2.382602
 ...... END OF PROPERTY EVALUATION ......
 CPU     0: STEP CPU TIME=     0.00 TOTAL CPU TIME=         12.0 (      0.2 MIN)
 TOTAL WALL CLOCK TIME=         12.0 SECONDS, CPU UTILIZATION IS    99.83%

     -------------------------------------------------
     GMC-PT/GMC-QDPT or general MCSCF input parameters
     -------------------------------------------------
 # of frozen core orbs. =         0 ->         0
 # of doubly occ. orbs. =         1
 # of active      orbs. =         7
 # of virtual     orbs. =        21
 # of active electrons  =         7
 # of states in CI      =         3
 Highest state in CI    =         3
 kstate =  1 1 1
 avecoe =  0.333 0.333 0.333
 State symmetry           = A           
 Assigned symmetry number = 1

 <<<Act. MO sym.: 1111111

 <<<Division of 1-ext.:  0
 <<<Division of 2-ext.:  0

     ------------------------
     Orbital canonicalization
     ------------------------

 MOs are canonicalized for core, virtual, and invariant-active orbital spaces.
 This is a part of the GMC-QDPT calculation.
 SCHWARZ INEQUALITY OVERHEAD:       465 INTEGRALS, T=        0.00
 DIRECT TRANSFORMATION SKIPS AO INTEGRAL STORAGE ON DISK.

 Averaged energy =     -55.685726570

 State #    1  Energy =     -55.818964780  S =  0.500
 State #    2  Energy =     -55.734172011  S =  0.500
 State #    3  Energy =     -55.504042918  S =  0.500

 Orbital energies for filled orbital space
  -15.983398
 Orbital energies for active orbital space
   -1.488530  -0.776685  -1.009401  -0.723483   0.105851
    0.222919   0.401217
 Orbital energies for external orbital space
    0.113896   0.197836   0.265382   0.526357   0.577740
    0.670167   0.870776   1.065285   1.092177   1.221381
    1.303721   1.437800   1.598546   1.717049   1.870891
    1.955072   2.142652   2.216195   2.536652   2.664594
    2.981016

 Zero values mean non-canonical orbitals.
 ... done with orbital canonicalization ...
 CPU     0: STEP CPU TIME=     0.64 TOTAL CPU TIME=         12.6 (      0.2 MIN)
 TOTAL WALL CLOCK TIME=         12.6 SECONDS, CPU UTILIZATION IS    99.84%

     --------------------------------------------
     PARTIAL TWO ELECTRON INTEGRAL TRANSFORMATION
     --------------------------------------------

 NUMBER OF CORE MOLECULAR ORBITALS     =    0
 NUMBER OF OCCUPIED MOLECULAR ORBITALS =    8
 TOTAL NUMBER OF MOLECULAR ORBITALS    =   29
 TOTAL NUMBER OF ATOMIC ORBITALS       =   30
 THRESHOLD FOR KEEPING TRANSFORMED 2E- INTEGRALS = 1.000E-09
 AO INTEGRALS WILL BE CALCULATED IN DIRECT MODE...
 DIRECT TRANSFORMATION SKIPS AO INTEGRAL STORAGE ON DISK.
 SCHWARZ INEQUALITY OVERHEAD:       465 INTEGRALS, T=        0.00

 PLAN A: REQUIREMENTS FOR FULLY IN-MEMORY TRANSFORMATION:
 # OF WORDS AVAILABLE =            100000000
 # OF WORDS NEEDED    =               221798

 PARALLEL ONLY WORKS WITH THE SEGMENTED ALGORITHM.
 ADJUSTING MEMORY TO USE SEGMENTED ALGORITHM.


 PLAN B: REQUIREMENTS FOR THE SEGMENTED TRANSFORMATION:
       MINIMUM=         124148 WORDS FOR 1 MOLECULAR ORBITAL PER PASS
       MAXIMUM=         221798 WORDS FOR ALL MOLECULAR ORBITALS IN 1 PASS
              (          13950 EXTRA WORDS INCLUDES 1 EXTRA ORBITAL/PASS)
 THIS RUN USES=         221798 WORDS,
 DISTRIBUTING   1 PASSES EACH CONTAINING     8 ORBITALS OVER   1 PROCESSORS.

 CHOOSING SEGMENTED PARTIAL TRANSFORMATION...
 DIRECT TRANSFORMATION SKIPS AO INTEGRAL STORAGE ON DISK.
 PASS #   1 TOOK        0.04 SECONDS.
 TOTAL NUMBER OF TRANSFORMED 2E- INTEGRALS KEPT =        29226
 ... END OF INTEGRAL TRANSFORMATION ...
 CPU     0: STEP CPU TIME=     0.04 TOTAL CPU TIME=         12.6 (      0.2 MIN)
 TOTAL WALL CLOCK TIME=         12.6 SECONDS, CPU UTILIZATION IS    99.84%

     --------     ------------------------------------------
     GMC-QDPT     Program written by H.Nakano (Kyushu Univ.)
     --------     ------------------------------------------

 *** Reference space

 Reference type: ORMAS (= Occupation restricted multiple active space)
 # of orbitals          =  7
 # of minimum electrons =  7
 # of maximum electrons =  7
 State symmetry    =    1 (input)
 2*Sz              =    1 (input)
 Spin multiplicity =    2 (input)
 Dimension of reference space =      1225  (from      3432 walks)

 Dimension of reference space =      1225  (from      1225 walks)

 <<<Ionized spaces for Ref-CI:
      0:         1225 /   -1-0:         1960 /  0-1-0:         2891

 ***                    ***
 *** Reference space CI ***
 ***                    ***

 Converged after   29 iterations

 Reference wavefunctions:

 State #    1  Energy =     -55.818964780  S =  0.500

      Det      Coef    Occupancy (Ignoring core)
      ---      ----    --------- --------- -----
        1   -0.962958  11110001110000
       71   -0.151555  11110001011000
      393   -0.078752  10110101010010
      717   -0.053308  11010011100001

 State #    2  Energy =     -55.734172011  S =  0.500

      Det      Coef    Occupancy (Ignoring core)
      ---      ----    --------- --------- -----
        1   -0.156071  11110001110000
       71    0.967566  11110001011000
      822   -0.053950  11010011001001

 State #    3  Energy =     -55.504042918  S =  0.500

      Det      Coef    Occupancy (Ignoring core)
      ---      ----    --------- --------- -----
       36   -0.971085  11110001101000
      113    0.053550  10110100111000
      142    0.050490  11101001100100
      463   -0.080484  10110101001010

 Davidson method: CPU/Wall time =           0.42 /           0.42 sec.

 Oscillator strength (invalid if E(1)/=E(GS)):
 -----------------------------------------
   State                        f
 -----------------------------------------
     2     F(REF-CI)=        0.0010646535
     3     F(REF-CI)=        0.0062260194
 -----------------------------------------

 Dipole moment matrix elements, x, y, z, in A.U.

 Dimension of ionized spaces for PT:
 (N-2) space:         1715 /  (N-1) space:         2842 /  N space:         2891
 (N+1) space:         2842 /  (N+2) space:         1715

 <<<Ionized spaces for internal:
         0:         1225 /      -1-0:         1960 /     0-1-0:         2891
  -1-0-1-0:         2842 / 0-1-0-1-0:         3381

 Diagonal elements of averaged one-particle density matrix:
       2       3       4       5       6       7       8
  0.9923  0.9833  0.9861  0.9892  0.0206  0.0173  0.0111
  0.9864  0.6555  0.6632  0.6603  0.0145  0.0123  0.0079

 Orbital energies:
 -------- Doubly-occupied orbitals (highest several orbs.) -------
             1
 -1.598340D+01
 -------- Active orbitals ----------------------------------------
             2            3            4            5            6
 -1.488530D+00-7.766851D-01-1.009401D+00-7.234826D-01 1.058512D-01
             7            8
  2.229194D-01 4.012169D-01
 -------- External orbitals (lowest several orbs.) ---------------
             9           10           11           12           13
  1.138961D-01 1.978360D-01 2.653821D-01 5.263569D-01 5.777400D-01
            14           15           16           17           18
  6.701674D-01 8.707761D-01 1.065285D+00 1.092177D+00 1.221381D+00

 *** Quasi-degeneracy checking

 === Det (|Ci| > 1.0D-01 and dE < 5.0D-03)

 # of small denominators (single excitations)
 State       dEmin  dE < 5.0D-03  dE < 5.0D-04  dE < 5.0D-05  dE < 5.0D-06
 ----- ----------- ------------- ------------- ------------- -------------
     1    5.00D-03             0             0             0             0
     2    5.00D-03             0             0             0             0
     3    5.00D-03             0             0             0             0

 # of small denominators (double excitations)
 State       dEmin  dE < 5.0D-03  dE < 5.0D-04  dE < 5.0D-05  dE < 5.0D-06
 ----- ----------- ------------- ------------- ------------- -------------
     1    5.00D-03             0             0             0             0
     2    5.00D-03             0             0             0             0
     3    5.00D-03             0             0             0             0

 *** Zeroth-Order Setup (Granovsky's zeroth-order vectors)
 Zeroth-order effective Hamiltonian
  (= Sum_i e(i)*<I|a+(i)a(i)|J> ):
                   1            2            3
     1 -7.162885D+00
     2 -1.396565D-02-7.131326D+00
     3 -1.111323D-03-5.284472D-03-6.880821D+00

 Zeroth-order vectors:
 State #    1
       MC st            1           2           3
       Coeff    9.347D-01   3.554D-01   1.015D-02
 State #    2
       MC st            2           1           3
       Coeff   -9.345D-01   3.555D-01  -1.852D-02
 State #    3
       MC st            3           2           1
       Coeff    9.998D-01  -2.092D-02  -2.902D-03

 *** GMC-QDPT computation

 (Integral reading:  CPU/Wall time =           0.00 /           0.00 sec.)

 One-external:
   0 -ionized terms: CPU/Wall time =           0.03 /           0.03 sec.
 (-1)-ionized terms: CPU/Wall time =           0.09 /           0.09 sec.
 (+1)-ionized terms: CPU/Wall time =           0.02 /           0.02 sec.
 (+1)-ionized terms: CPU/Wall time =           0.01 /           0.01 sec.
 (+2)-ionized terms: CPU/Wall time =           0.00 /           0.00 sec.

 Internal:
 # of macro loops for internal contribution =         1 (input)
 Loop:    1
 Dimension of internal CISD space     =         0  (after screening)
 Space construction: CPU/Wall time =           0.02 /           0.02 sec.
 Internal terms:     CPU/Wall time =           0.00 /           0.00 sec.

 Two-external:
   0 -ionized terms: CPU/Wall time =           0.06 /           0.06 sec.
 (-1)-ionized terms: CPU/Wall time =           1.00 /           1.00 sec.
 (-2)-ionized terms: CPU/Wall time =           0.17 /           0.17 sec.

 Total time:         CPU/Wall time =           1.40 /           1.40 sec.

 ***                  ***
 *** GMC-QDPT Results ***
 ***                  ***

 Diagonal elements of effective Hamiltonian:
 Heff(  1) =   -55.90917253
 Heff(  2) =   -55.85016901
 Heff(  3) =   -55.61568513

 Off-diagonal elements of effective Hamiltonian:
                   1            2
     2 -2.505314D-02
     3  3.117686D-03-3.745343D-03

 ******** GMC-QDPT energies ********
 ----------------------------------------------------------------------------
   State                        1st order                           2nd order
 ----------------------------------------------------------------------------
     1     E(REF-CI)=      -55.8189647803   E(GMC-QDPT2)=      -55.9183837878
     2     E(REF-CI)=      -55.7341720107   E(GMC-QDPT2)=      -55.8410600787
     3     E(REF-CI)=      -55.5040429176   E(GMC-QDPT2)=      -55.6155828019
 ----------------------------------------------------------------------------

 Excitation energies (invalid if E(1)/=E(GS)):
 ----------------------------------------------------------------------------
   State                        1st order                           2nd order
 ----------------------------------------------------------------------------

     TZ Sorted GMC-PT ENERGIES:
         1      -55.9183837878
         2      -55.8410600787
         3      -55.6155828019
     2     E(REF-CI)=        2.3073300 eV   E(GMC-QDPT2)=        2.1040864 eV
     3     E(REF-CI)=        8.5694648 eV   E(GMC-QDPT2)=        8.2396387 eV
 ----------------------------------------------------------------------------

 Main characters of perturbed GMC-QDPT states:

 State #    1  Energy =     -55.918383788  S =  0.500

      Det      Coef    Occupancy (Ignoring core)
      ---      ----    --------- --------- -----
        1   -0.964707  11110001110000
       71   -0.140135  11110001011000
      393   -0.078858  10110101010010
      717   -0.053360  11010011100001

 State #    2  Energy =     -55.841060079  S =  0.500

      Det      Coef    Occupancy (Ignoring core)
      ---      ----    --------- --------- -----
        1   -0.144687  11110001110000
       71    0.969295  11110001011000
      822   -0.054038  11010011001001

 State #    3  Energy =     -55.615582802  S =  0.500

      Det      Coef    Occupancy (Ignoring core)
      ---      ----    --------- --------- -----
       36   -0.971066  11110001101000
      113    0.053589  10110100111000
      142    0.050450  11101001100100
      463   -0.080459  10110101001010

 <<<Max |V/de| = 2.973D-02  Thresh = 1.000D+00

 Oscillator strength (invalid if E(1)/=E(GS)):
 ----------------------------------------------------------------------------
   State                        1st order                           2nd order
 ----------------------------------------------------------------------------
     2     F(REF-CI)=        0.0010646535     F(GMC-PT2)=        0.0010275673
     3     F(REF-CI)=        0.0062260194     F(GMC-PT2)=        0.0060756444
 ----------------------------------------------------------------------------

 Dipole moment matrix elements, x, y, z, in A.U.
States    1    1        0.2619013112       -0.2716551635        0.6687218091
States    1    2       -0.0401343143        0.0147600744       -0.1345552685
States    1    3       -0.0565393034        0.1415696219        0.0828164530
States    2    1       -0.0401343143        0.0147600744       -0.1345552685
States    2    2        0.3172095433       -0.0699795002        0.3255020818
States    2    3        0.0714218053        0.0564939368       -0.0026937570
States    3    1       -0.0565393034        0.1415696219        0.0828164530
States    3    2        0.0714218053        0.0564939368       -0.0026937570
States    3    3        0.4217850384       -0.4997293659        0.2497029523

 Oscillator strength (valid only when positive): 
 ----------------------------------------------------------------------------
  States                        1st order                           2nd order
 ----------------------------------------------------------------------------
  1  1     F(REF-CI)=        0.0000000000     F(GMC-PT2)=        0.0000000000
  1  2     F(REF-CI)=       -0.0010646535     F(GMC-PT2)=       -0.0010275673
  1  3     F(REF-CI)=       -0.0062260194     F(GMC-PT2)=       -0.0060756444
  2  1     F(REF-CI)=        0.0010646535     F(GMC-PT2)=        0.0010275673
  2  2     F(REF-CI)=        0.0000000000     F(GMC-PT2)=        0.0000000000
  2  3     F(REF-CI)=       -0.0012913940     F(GMC-PT2)=       -0.0012476252
  3  1     F(REF-CI)=        0.0062260194     F(GMC-PT2)=        0.0060756444
  3  2     F(REF-CI)=        0.0012913940     F(GMC-PT2)=        0.0012476252
  3  3     F(REF-CI)=        0.0000000000     F(GMC-PT2)=        0.0000000000
 CPU     0: STEP CPU TIME=     1.90 TOTAL CPU TIME=         14.5 (      0.2 MIN)
 TOTAL WALL CLOCK TIME=         14.5 SECONDS, CPU UTILIZATION IS   100.00%

     !!! DIABATIZATION FOR REF CI STATES !!!

 *******************************************************
          $DMO GROUP FOUND IN THE INPUT.
        DIABATIZATION OF ADIABATIC STATES BEGINS.
     PROGRAMMED BY TAO ZENG (CARLETON UNIVERSITY).
               Email: toby.zeng@carleton.ca
     See T. Zeng, J. Chem. Phys. 2017, 146, 144103
 *******************************************************

 *************************************************************************
     STEP 1: TRANSFORMATION OF ADIABATIC STATES TO THE DMO REPRESENTATION
         See Atchity and Ruedenberg, J. Chem. Phys. 1999, 111, 2910
 *************************************************************************

Read in Diabatic Molecualr Orbitals:

                      1          2          3          4          5

    1  N  1  S    0.008609   0.000000   0.000000  -0.013219   0.279491
    2  N  1  S    0.442914  -0.000000   0.000000  -0.184329   0.867803
    3  N  1  S    0.276913   0.000000  -0.000000  -0.288315   0.144236
    4  N  1  X   -0.000000   0.493155  -0.024636  -0.000000  -0.000000
    5  N  1  Y    0.000000   0.024636   0.493155  -0.000000   0.000000
    6  N  1  Z    0.090197   0.000000   0.000000   0.593421   0.705309
    7  N  1  X   -0.000000   0.210628  -0.010522   0.000000   0.000000
    8  N  1  Y    0.000000   0.010522   0.210628  -0.000000  -0.000000
    9  N  1  Z   -0.004381   0.000000   0.000000   0.381592  -0.106092
   10  N  1 XX   -0.000457   0.010719  -0.000535  -0.012387   0.006153
   11  N  1 YY   -0.000457  -0.010719   0.000535  -0.012387   0.006153
   12  N  1 ZZ    0.000914  -0.000000   0.000000   0.024773  -0.012306
   13  N  1 XY    0.000000  -0.000618  -0.012377  -0.000000   0.000000
   14  N  1 XZ   -0.000000   0.026529  -0.001325  -0.000000   0.000000
   15  N  1 YZ    0.000000   0.001325   0.026529  -0.000000   0.000000
   16  H  2  S    0.194462  -0.176074   0.343485   0.112865  -0.523343
   17  H  2  S    0.003574  -0.023812   0.046452   0.024014  -0.054445
   18  H  2  X    0.018760   0.009101   0.022834   0.009336  -0.039151
   19  H  2  Y   -0.032493   0.022287  -0.020044  -0.016171   0.067811
   20  H  2  Z   -0.009251   0.008464  -0.016511   0.018769  -0.010566
   21  H  3  S    0.194462  -0.209430  -0.324227   0.112865  -0.523343
   22  H  3  S    0.003574  -0.028322  -0.043847   0.024014  -0.054445
   23  H  3  X    0.018760   0.006781  -0.023627   0.009336  -0.039151
   24  H  3  Y    0.032493  -0.024174  -0.017723   0.016171  -0.067811
   25  H  3  Z   -0.009251   0.010067   0.015585   0.018769  -0.010566
   26  H  4  S    0.194462   0.385503  -0.019258   0.112865  -0.523343
   27  H  4  S    0.003574   0.052134  -0.002604   0.024014  -0.054445
   28  H  4  X   -0.037519  -0.032295   0.001613  -0.018672   0.078302
   29  H  4  Y    0.000000   0.001067   0.021353  -0.000000   0.000000
   30  H  4  Z   -0.009251  -0.018530   0.000926   0.018769  -0.010566

                      6          7

    1  N  1  S    0.000000  -0.000000
    2  N  1  S    0.000000  -0.000000
    3  N  1  S   -0.000000   0.000000
    4  N  1  X   -0.930415  -0.002083
    5  N  1  Y   -0.002083   0.930415
    6  N  1  Z   -0.000000   0.000000
    7  N  1  X   -0.046866  -0.000105
    8  N  1  Y   -0.000105   0.046866
    9  N  1  Z   -0.000000   0.000000
   10  N  1 XX    0.001538   0.000003
   11  N  1 YY   -0.001538  -0.000003
   12  N  1 ZZ   -0.000000   0.000000
   13  N  1 XY   -0.000004   0.001776
   14  N  1 XZ    0.039985   0.000090
   15  N  1 YZ    0.000090  -0.039985
   16  H  2  S   -0.362630  -0.631354
   17  H  2  S   -0.065964  -0.114846
   18  H  2  X    0.002763  -0.037520
   19  H  2  Y    0.037435   0.040736
   20  H  2  Z    0.001882   0.003276
   21  H  3  S   -0.365454   0.629724
   22  H  3  S   -0.066477   0.114549
   23  H  3  X    0.002595   0.037532
   24  H  3  Y   -0.037617   0.040567
   25  H  3  Z    0.001896  -0.003268
   26  H  4  S    0.728084   0.001630
   27  H  4  S    0.132441   0.000297
   28  H  4  X   -0.062317  -0.000140
   29  H  4  Y    0.000055  -0.024345
   30  H  4  Z   -0.003778  -0.000008

NUMBER OF SUB ACTIVE SPACES:   1
ROTATE ACTIVE MOS TO DMOS IN EACH SUB-SPACE

SPACE  1:

OVERLAP BETWEEN ORTHONORMAL AND PRE-ORTHONORMAL REF. DMOS

             1           2           3           4           5

    1    0.9737387   0.0265259  -0.0078960  -0.0094958  -0.0025878
    2    0.0265259   0.8811771  -0.0652457   0.0364871  -0.0565300
    3   -0.0078960  -0.0652457   1.0204069  -0.0264937   0.0642755
    4   -0.0094958   0.0364871  -0.0264937   0.9927945  -0.0114093
    5   -0.0025878  -0.0565300   0.0642755  -0.0114093   1.1702275
    6    0.0013210  -0.0799517  -0.0730116   0.0432771  -0.0030802
    7   -0.0018914   0.0527067  -0.0366017   0.0455918  -0.0842556

             6           7

    1    0.0013210  -0.0018914
    2   -0.0799517   0.0527067
    3   -0.0730116  -0.0366017
    4    0.0432771   0.0455918
    5   -0.0030802  -0.0842556
    6    1.0647867   0.0024038
    7    0.0024038   1.0433892
REFERENCE DMOS AFTER ORTHONORMALIZATION:

                      1          2          3          4          5

    1  N  1  S    0.008913   0.013691  -0.013822  -0.012246   0.241518
    2  N  1  S    0.453911   0.035457  -0.043114  -0.178555   0.749674
    3  N  1  S    0.281554   0.010347  -0.010813  -0.288491   0.123787
    4  N  1  X   -0.012236   0.481685  -0.055524   0.018828   0.022432
    5  N  1  Y    0.005231   0.018191   0.516520  -0.029821   0.038071
    6  N  1  Z    0.099884   0.006017  -0.022609   0.604926   0.611891
    7  N  1  X   -0.006514   0.238653   0.001830  -0.007047   0.010493
    8  N  1  Y    0.001094   0.025518   0.211480   0.001622  -0.006694
    9  N  1  Z   -0.000322  -0.021012   0.012364   0.386188  -0.090262
   10  N  1 XX   -0.000949   0.013345  -0.000158  -0.013060   0.005815
   11  N  1 YY   -0.000257  -0.011683  -0.000916  -0.012005   0.004727
   12  N  1 ZZ    0.001207  -0.001662   0.001074   0.025064  -0.010542
   13  N  1 XY   -0.000050  -0.001729  -0.012309  -0.000281   0.000690
   14  N  1 XZ   -0.000989   0.034369   0.003575  -0.002863   0.001441
   15  N  1 YZ   -0.000012   0.005538   0.025442   0.002084  -0.003848
   16  H  2  S    0.207668  -0.216452   0.314346   0.169970  -0.519176
   17  H  2  S    0.004801  -0.028248   0.039739   0.033597  -0.058053
   18  H  2  X    0.019079   0.011531   0.024804   0.010993  -0.036915
   19  H  2  Y   -0.034359   0.030728  -0.018286  -0.021090   0.063329
   20  H  2  Z   -0.009670   0.007572  -0.014752   0.017990  -0.007639
   21  H  3  S    0.208787  -0.368725  -0.319365   0.107082  -0.405645
   22  H  3  S    0.005144  -0.051821  -0.044429   0.022681  -0.038845
   23  H  3  X    0.019116   0.001578  -0.019621   0.007137  -0.029847
   24  H  3  Y    0.034455  -0.039845  -0.017297   0.017124  -0.056255
   25  H  3  Z   -0.009548   0.012154   0.017117   0.018798  -0.009555
   26  H  4  S    0.185860   0.477278   0.091482   0.066629  -0.430423
   27  H  4  S    0.001760   0.068866   0.014080   0.016222  -0.043990
   28  H  4  X   -0.037465  -0.037400  -0.009743  -0.014971   0.065787
   29  H  4  Y    0.000016   0.004060   0.020682   0.001356  -0.002584
   30  H  4  Z   -0.008706  -0.022744   0.000077   0.019834  -0.010013

                      6          7

    1  N  1  S    0.001223   0.018875
    2  N  1  S    0.008420   0.065840
    3  N  1  S    0.011720   0.022183
    4  N  1  X   -0.842071  -0.025370
    5  N  1  Y    0.034080   0.913233
    6  N  1  Z   -0.024089   0.022118
    7  N  1  X   -0.025620  -0.010889
    8  N  1  Y    0.016118   0.050400
    9  N  1  Z   -0.016636  -0.022631
   10  N  1 XX    0.002983   0.000355
   11  N  1 YY   -0.001886   0.001465
   12  N  1 ZZ   -0.001098  -0.001820
   13  N  1 XY   -0.000967   0.001428
   14  N  1 XZ    0.040503  -0.001379
   15  N  1 YZ    0.002235  -0.038117
   16  H  2  S   -0.342507  -0.631324
   17  H  2  S   -0.062630  -0.113252
   18  H  2  X    0.004673  -0.039109
   19  H  2  Y    0.037197   0.042735
   20  H  2  Z    0.000581   0.000818
   21  H  3  S   -0.399885   0.574824
   22  H  3  S   -0.070652   0.106889
   23  H  3  X    0.000737   0.032514
   24  H  3  Y   -0.040487   0.035151
   25  H  3  Z    0.003098  -0.004763
   26  H  4  S    0.721842  -0.058333
   27  H  4  S    0.129747  -0.007257
   28  H  4  X   -0.061173   0.007453
   29  H  4  Y    0.001764  -0.023084
   30  H  4  Z   -0.006074  -0.000533

 -------------------------------------------
       MAXIMIZING MORMO OVERLAP TERM        
 -------------------------------------------
   SWEEP    VALUE       PROGRESS
     0     5.42982
     1     6.93506     1.50524615
     2     6.94150     0.00643386
     3     6.94150     0.00000027
     4     6.94150     0.00000000
     5     6.94150     0.00000000
 THE ROTATION IS DONE
ACTIVE ORBITALS AFTER MORMO:

                      1          2          3          4          5

    1  N  1  S    0.007190   0.023236  -0.012542  -0.012134   0.182157
    2  N  1  S    0.427406   0.055329  -0.019900  -0.189471   0.671480
    3  N  1  S    0.336009  -0.041681  -0.020787  -0.272173   0.220346
    4  N  1  X   -0.002120   0.425413  -0.069882   0.035317   0.005699
    5  N  1  Y    0.012606  -0.007891   0.497627  -0.026440   0.048125
    6  N  1  Z    0.084616   0.029120  -0.032173   0.604568   0.583367
    7  N  1  X   -0.018145   0.318696   0.046086  -0.046903   0.038874
    8  N  1  Y   -0.005532   0.078438   0.203015   0.028324  -0.033153
    9  N  1  Z    0.028661  -0.056860   0.034599   0.386202  -0.049425
   10  N  1 XX   -0.004951   0.025041   0.001773  -0.013535   0.029820
   11  N  1 YY    0.005008  -0.025209  -0.002755  -0.007054  -0.038990
   12  N  1 ZZ   -0.000057   0.000169   0.000981   0.020589   0.009170
   13  N  1 XY   -0.004223   0.001598  -0.005438   0.003017   0.031905
   14  N  1 XZ    0.001028   0.022373   0.005447   0.000643  -0.030493
   15  N  1 YZ   -0.003256   0.005508   0.015736   0.005157   0.015792
   16  H  2  S    0.184382  -0.197238   0.335525   0.132470  -0.509321
   17  H  2  S    0.000933  -0.035847   0.032218   0.037766  -0.067942
   18  H  2  X    0.011318   0.015117   0.018486   0.002603  -0.018118
   19  H  2  Y   -0.032272   0.023627  -0.036244  -0.011607   0.054952
   20  H  2  Z   -0.002487   0.002396  -0.007918   0.022255  -0.012150
   21  H  3  S    0.185140  -0.248325  -0.301133   0.097934  -0.405260
   22  H  3  S    0.009760  -0.138946  -0.083442   0.034718  -0.054305
   23  H  3  X   -0.000575   0.023344   0.003905  -0.001365  -0.018092
   24  H  3  Y    0.029916  -0.020502  -0.032328   0.013024  -0.040934
   25  H  3  Z   -0.006261   0.001021   0.019520   0.017179  -0.021544
   26  H  4  S    0.182010   0.406196   0.031875   0.084692  -0.455075
   27  H  4  S   -0.000189   0.152846   0.060491   0.023214  -0.066112
   28  H  4  X   -0.030623  -0.020128   0.004242  -0.018625   0.049153
   29  H  4  Y    0.009267   0.019663   0.015794   0.003127   0.011290
   30  H  4  Z   -0.012829  -0.030112   0.005975   0.016616  -0.009659

                      6          7

    1  N  1  S    0.047217   0.073604
    2  N  1  S    0.109081   0.156328
    3  N  1  S   -0.125046  -0.108138
    4  N  1  X   -0.844073   0.002748
    5  N  1  Y   -0.003199   0.896875
    6  N  1  Z   -0.044108   0.021916
    7  N  1  X   -0.025819  -0.062760
    8  N  1  Y    0.075375   0.093909
    9  N  1  Z   -0.010506  -0.049770
   10  N  1 XX    0.043859  -0.016986
   11  N  1 YY   -0.055696  -0.004288
   12  N  1 ZZ    0.011837   0.021274
   13  N  1 XY   -0.014335  -0.020072
   14  N  1 XZ    0.015048   0.003009
   15  N  1 YZ   -0.013716  -0.046023
   16  H  2  S   -0.319772  -0.613907
   17  H  2  S   -0.070138  -0.122748
   18  H  2  X   -0.002285  -0.022798
   19  H  2  Y    0.025443   0.056063
   20  H  2  Z   -0.002542  -0.024348
   21  H  3  S   -0.285719   0.565617
   22  H  3  S   -0.155897   0.177856
   23  H  3  X    0.038463   0.013805
   24  H  3  Y   -0.025844   0.044700
   25  H  3  Z    0.018933   0.012487
   26  H  4  S    0.667319   0.021661
   27  H  4  S    0.233177  -0.059182
   28  H  4  X   -0.032106  -0.007412
   29  H  4  Y    0.006452  -0.047705
   30  H  4  Z   -0.013888   0.015574

Actually Used Diabatic Molecualr Orbitals:

                      1          2          3          4          5

    1  N  1  S    0.007190   0.023236  -0.012542  -0.012134   0.182157
    2  N  1  S    0.427406   0.055329  -0.019900  -0.189471   0.671480
    3  N  1  S    0.336009  -0.041681  -0.020787  -0.272173   0.220346
    4  N  1  X   -0.002120   0.425413  -0.069882   0.035317   0.005699
    5  N  1  Y    0.012606  -0.007891   0.497627  -0.026440   0.048125
    6  N  1  Z    0.084616   0.029120  -0.032173   0.604568   0.583367
    7  N  1  X   -0.018145   0.318696   0.046086  -0.046903   0.038874
    8  N  1  Y   -0.005532   0.078438   0.203015   0.028324  -0.033153
    9  N  1  Z    0.028661  -0.056860   0.034599   0.386202  -0.049425
   10  N  1 XX   -0.004951   0.025041   0.001773  -0.013535   0.029820
   11  N  1 YY    0.005008  -0.025209  -0.002755  -0.007054  -0.038990
   12  N  1 ZZ   -0.000057   0.000169   0.000981   0.020589   0.009170
   13  N  1 XY   -0.004223   0.001598  -0.005438   0.003017   0.031905
   14  N  1 XZ    0.001028   0.022373   0.005447   0.000643  -0.030493
[...]

 ---------------------------------------
     - ROTATION TO DIABATIC STATES -    
 ---------------------------------------
 ROWS=ADIABATIC, COLUMNS=DIABATIC STATES

             1           2           3

    1    0.9358003   0.3513673  -0.0286145
    2   -0.3007369   0.8380309   0.4552598
    3    0.1839432  -0.4174268   0.8898987

 ---------------------------------------
          - DIABATIC STATES -           
 ---------------------------------------

 State #    1  Energy =     -55.901145120

      Det      Coef        Coefp    Occupancy (Ignoring core)
      ---      ----        ----    --------- --------- -----
        1    0.909575   -0.909575  222+000
        8   -0.173274    0.173274  2-2+0+0
      386    0.143098   -0.143098  2+2+0-0
        4   -0.108474    0.108474  2-2++00
      176    0.104441   -0.104441  2+2+-00
        7   -0.092731   -0.092731  22-+0+0
      351    0.089246    0.089246  22++0-0
        3    0.088187    0.088187  22-++00
      141   -0.084547   -0.084547  22++-00
        6    0.075667   -0.075667  22200+0
       18    0.069230   -0.069230  2-2+00+
      717   -0.064403   -0.064403  220+002
      736   -0.063045    0.063045  2+2+00-
      393   -0.061372   -0.061372  202+020
       16    0.055054   -0.055054  222000+
      708    0.044693   -0.044693  2-++0+-
      402    0.040366   -0.040366  2+-+0-+
       13   -0.039938   -0.039938  2--+++0
      215   -0.039445   -0.039445  022+200
      705   -0.035842   -0.035842  -2+++0-
      561   -0.035583   -0.035583  2+++--0
      227   -0.035540   -0.035540  +2-+-0+
      218    0.033418   -0.033418  +-2+-+0
      390    0.032855   -0.032855  -+2++-0
      212    0.031701    0.031701  +220200
     1051   -0.031672   -0.031672  2+++0--
       76    0.030176    0.030176  2+2-0+0
      387   -0.029969    0.029969  2+20+-0
      143   -0.028934   -0.028934  220+200
       11    0.028846   -0.028846  2-20++0
      113   -0.028819    0.028819  +-220+0
       29   -0.028167   -0.028167  2--+0++
      391    0.027826   -0.027826  2+20020
      148    0.026938    0.026938  2-++-+0
      183   -0.026487    0.026487  202+-+0
      389    0.026195    0.026195  202++-0
      424   -0.026088   -0.026088  +-2++-0
      388    0.025716    0.025716  2+-++-0
      147    0.025530   -0.025530  220+-+0
      773    0.024961   -0.024961  +2-++0-
      353   -0.024649   -0.024649  220++-0
       51   -0.024426    0.024426  22+-00+
        5    0.024293    0.024293  -22++00
      702    0.024180    0.024180  22+0+0-
      159    0.024128   -0.024128  -2++-0+
      184   -0.024045   -0.024045  -+2+-+0
       27    0.023775   -0.023775  2-200++
      122    0.022492    0.022492  +2-200+

 State #    2  Energy =     -55.811318066

      Det      Coef        Coefp    Occupancy (Ignoring core)
      ---      ----        ----    --------- --------- -----
       71   -0.908715    0.908715  2+22000
       74    0.147560   -0.147560  2022+00
       78    0.139222   -0.139222  20220+0
       76    0.110600    0.110600  2+2-0+0
       77   -0.104916    0.104916  2+-20+0
      456    0.104239    0.104239  2++20-0
      386   -0.094699    0.094699  2+2+0-0
      246   -0.092631   -0.092631  2++2-00
       73    0.088455   -0.088455  2+-2+00
      736   -0.070262    0.070262  2+2+00-
       88   -0.069494    0.069494  202200+
       86    0.067170    0.067170  2+2-00+
      106    0.063406    0.063406  +222000
      822    0.062871   -0.062871  2+02002
      813    0.049976   -0.049976  20+20+-
       81    0.046362    0.046362  202-++0
       83   -0.044583    0.044583  20-2++0
       36    0.043191    0.043191  22+2000
      113    0.042524   -0.042524  +-220+0
       99   -0.041442    0.041442  20-20++
       72   -0.039963   -0.039963  2+2-+00
      183   -0.039652    0.039652  202+-+0
      320    0.039161    0.039161  0+22200
      323   -0.038739    0.038739  +022-+0
      810   -0.036511   -0.036511  -++2+0-
      180   -0.035647    0.035647  -+2+200
      177    0.034811   -0.034811  2+20200
      317    0.034469   -0.034469  ++2-200
      176    0.033712   -0.033712  2+2+-00
      332   -0.033284    0.033284  ++-2-0+
      393   -0.033271   -0.033271  202+020
      248    0.028610   -0.028610  2+02200
      252   -0.028433   -0.028433  2+02-+0
      253    0.028296    0.028296  20+2-+0
      806    0.027545    0.027545  2++200-
       97    0.027206    0.027206  202-0++
      529    0.026324    0.026324  +022+-0
       75   -0.026261   -0.026261  -+22+00
      807   -0.025440    0.025440  2++-+0-
      111    0.024978   -0.024978  +22-0+0
      192   -0.024649    0.024649  2+-+-0+
      458    0.023788   -0.023788  2+02+-0
      878    0.023608    0.023608  ++-2+0-
      109    0.023199   -0.023199  +-22+00
      264    0.023144   -0.023144  -++2-0+
       42   -0.023115    0.023115  22020+0
       38   -0.022949    0.022949  2202+00
      526   -0.021909   -0.021909  ++220-0
       89    0.021755    0.021755  -+2200+
      534    0.021059    0.021059  0+22020
      742    0.020649    0.020649  2+-+0+-
       79   -0.020615   -0.020615  -+220+0
      743   -0.020161   -0.020161  202+0+-

 State #    3  Energy =     -55.662563482

      Det      Coef        Coefp    Occupancy (Ignoring core)
      ---      ----        ----    --------- --------- -----
       36   -0.913015   -0.913015  22+2000
      456   -0.138347   -0.138347  2++20-0
       43    0.128838    0.128838  2-+20+0
      246   -0.123312   -0.123312  2++2-00
       42    0.092660   -0.092660  22020+0
       39    0.083217    0.083217  2-+2+00
       38   -0.081518    0.081518  2202+00
      351   -0.080163   -0.080163  22++0-0
       51    0.073295   -0.073295  22+-00+
      463    0.069218   -0.069218  20+2020
      806    0.068762    0.068762  2++200-
       53   -0.066458   -0.066458  2-+200+
       41    0.066120   -0.066120  22+-0+0
      701   -0.064293   -0.064293  22++00-
       37   -0.055006    0.055006  22+-+00
      472   -0.049904   -0.049904  2+020-+
       52    0.048244   -0.048244  220200+
       71   -0.045131    0.045131  2+22000
      121   -0.041963    0.041963  +22-00+
       64    0.041315   -0.041315  2-020++
      285    0.041157   -0.041157  02+2200
       73    0.040095   -0.040095  2+-2+00
      112   -0.039320   -0.039320  +2-20+0
      457   -0.038869    0.038869  2++-+-0
      282    0.036888    0.036888  +2+-200
      460   -0.036764   -0.036764  -++2+-0
       46    0.036753   -0.036753  2-+-++0
      148   -0.036193   -0.036193  2-++-+0
      297    0.035372   -0.035372  +202-0+
      142    0.034996    0.034996  22+0200
      145   -0.034782   -0.034782  -2++200
      288   -0.033454   -0.033454  +-+2-+0
      561    0.033427    0.033427  2+++--0
      358   -0.032553    0.032553  2-++020
      281    0.031993   -0.031993  +2+2-00
      461    0.031890   -0.031890  2++-020
       48    0.031023   -0.031023  2-02++0
        3    0.029684    0.029684  22-++00
      106   -0.028536   -0.028536  +222000
      108   -0.027581   -0.027581  +2-2+00
      254    0.027441   -0.027441  -++2-+0
      253    0.026161    0.026161  20+2-+0
       16   -0.026130    0.026130  222000+
      141    0.025322    0.025322  22++-00
      494    0.024702   -0.024702  +-+2+-0
      157    0.024611   -0.024611  220+-0+
      491    0.023795   -0.023795  +2+20-0
      249    0.023698   -0.023698  20+2200
      113   -0.023697    0.023697  +-220+0
       62    0.022953   -0.022953  2-+-0++
       86    0.022699    0.022699  2+2-00+
      771    0.021823    0.021823  +22+00-
      843   -0.021657   -0.021657  +202+0-
     1051    0.021102    0.021102  2+++0--
       19    0.020140    0.020140  -22+00+
      716    0.020083    0.020083  22+0002

 ---------------------------------------
      - DIABATIC STATES IN CMO -        
 ---------------------------------------

 State #    1  Energy =     -55.901145120

      Det      Coef        Coefp    Occupancy (Ignoring core)
      ---      ----        ----    --------- --------- -----
        1    0.861747   -0.861747  222+000
       71    0.420705   -0.420705  2+22000
       36   -0.170736   -0.170736  22+2000
      393   -0.071456   -0.071456  202+020
      717   -0.050697   -0.050697  220+002
      177   -0.040085    0.040085  2+20200
      106   -0.039757   -0.039757  +222000
      179   -0.036833   -0.036833  202+200
      143   -0.032434   -0.032434  220+200
       17    0.032081    0.032081  22-+00+
        2    0.031601   -0.031601  2220+00
      215   -0.031447   -0.031447  022+200
        8   -0.030847    0.030847  2-2+0+0
      358    0.029716   -0.029716  2-++020
      212    0.029443    0.029443  +220200
      392   -0.029255   -0.029255  2+-+020
      180    0.028524   -0.028524  -+2+200
      113   -0.027580    0.027580  +-220+0
      822   -0.026570    0.026570  2+02002
      183    0.026486   -0.026486  202+-+0
       76    0.026343    0.026343  2+2-0+0
      387   -0.025101    0.025101  2+20+-0
      402    0.023811   -0.023811  2+-+0-+
      178    0.023770    0.023770  2+-+200
      357   -0.023588   -0.023588  220+020
       74   -0.023019    0.023019  2022+00
      705   -0.022493   -0.022493  -2+++0-
      390    0.021792   -0.021792  -+2++-0
      388    0.021508    0.021508  2+-++-0
      227   -0.021432   -0.021432  +2-+-0+
      394   -0.021015    0.021015  -+2+020
      561   -0.020674   -0.020674  2+++--0
      248   -0.020624    0.020624  2+02200
      702    0.020508    0.020508  22+0+0-
      787    0.020214   -0.020214  +2-+002
       13   -0.020116   -0.020116  2--+++0

 State #    2  Energy =     -55.811318066

      Det      Coef        Coefp    Occupancy (Ignoring core)
      ---      ----        ----    --------- --------- -----
       71   -0.758665    0.758665  2+22000
        1    0.454578   -0.454578  222+000
       36    0.418452    0.418452  22+2000
      822    0.049287   -0.049287  2+02002
      248    0.042673   -0.042673  2+02200
      113    0.034514   -0.034514  +-220+0
      393   -0.034386   -0.034386  202+020
       74    0.030495   -0.030495  2022+00
      177    0.030225   -0.030225  2+20200
      142   -0.029288   -0.029288  22+0200
      143   -0.028913   -0.028913  220+200
      112   -0.028356   -0.028356  +2-20+0
      109    0.028298   -0.028298  +-22+00
      253    0.027471    0.027471  20+2-+0
        6    0.027432   -0.027432  22200+0
      249   -0.026689    0.026689  20+2200
      247    0.025725   -0.025725  2++-200
      320    0.025550    0.025550  0+22200
      317    0.025287   -0.025287  ++2-200
      813    0.024993   -0.024993  20+20+-
        2    0.023552   -0.023552  2220+00
      148    0.023427    0.023427  2-++-+0
       83   -0.023317    0.023317  20-2++0
      807   -0.022504    0.022504  2++-+0-
      810   -0.021651   -0.021651  -++2+0-
       87    0.021564   -0.021564  2+-200+
      107   -0.021562    0.021562  +22-+00
      145    0.021525    0.021525  -2++200
       53   -0.021246   -0.021246  2-+200+
      534    0.020961    0.020961  0+22020
      823   -0.020393    0.020393  20+2002
      111    0.020177   -0.020177  +22-0+0

 State #    3  Energy =     -55.662563482

      Det      Coef        Coefp    Occupancy (Ignoring core)
      ---      ----        ----    --------- --------- -----
       36   -0.859634   -0.859634  22+2000
       71   -0.454660    0.454660  2+22000
      463    0.086431   -0.086431  20+2020
        1    0.050291   -0.050291  222+000
      142    0.044405    0.044405  22+0200
      108   -0.043136   -0.043136  +2-2+00
      462    0.041978   -0.041978  2+02020
      113   -0.038328    0.038328  +-220+0
        3    0.038223    0.038223  22-++00
      121   -0.036010    0.036010  +22-00+
       72   -0.035974   -0.035974  2+2-+00
        4    0.034928   -0.034928  2-2++00
      285    0.033105   -0.033105  02+2200
      107    0.031153   -0.031153  +22-+00
      457   -0.029972    0.029972  2++-+-0
      145   -0.029572   -0.029572  -2++200
      282    0.028750    0.028750  +2+-200
       37   -0.028144    0.028144  22+-+00
      472   -0.026973   -0.026973  2+020-+
      177    0.026315   -0.026315  2+20200
       52    0.025333   -0.025333  220200+
       78    0.025073   -0.025073  20220+0
      460   -0.024899   -0.024899  -++2+-0
       40    0.023691   -0.023691  -2+2+00
      716    0.023094    0.023094  22+0002
      249    0.022917   -0.022917  20+2200
      464    0.022740    0.022740  -++2020
      148   -0.022595   -0.022595  2-++-+0
      771    0.021733    0.021733  +22+00-
      561    0.021464    0.021464  2+++--0
       88   -0.021237    0.021237  202200+
       79    0.020896    0.020896  -+220+0
      157    0.020757   -0.020757  220+-0+
      458   -0.020719    0.020719  2+02+-0
      499    0.020424   -0.020424  02+2020
       46    0.020270   -0.020270  2-+-++0
      288   -0.020040   -0.020040  +-+2-+0

 ---------------------------------------
    -DIABATIC STATES IN PROTOTYPES-     
 ---------------------------------------

     STATE:    1
 Group Ref#    Coefficients
     1    1    0.930029
     2    2    0.003328
     3    3    0.007374

WEIGHT OF LISTED PROTOTYPES:   86.50%

     STATE:    2
 Group Ref#    Coefficients
     1    1    0.003334
     2    2    0.928372
     3    3    0.002940

WEIGHT OF LISTED PROTOTYPES:   86.19%

     STATE:    3
 Group Ref#    Coefficients
     1    1    0.007410
     2    2    0.002949
     3    3    0.925506

WEIGHT OF LISTED PROTOTYPES:   85.66%

     DIRECT MAX. DIABATIZATION FINISHED    
 CPU     0: STEP CPU TIME=     0.24 TOTAL CPU TIME=         14.8 (      0.2 MIN)
 TOTAL WALL CLOCK TIME=         14.8 SECONDS, CPU UTILIZATION IS    99.93%

DIABATS FOR SPIN-ORBIT CALCULATION ARE READY

TRANSITION DIPOLES BETWEEN ADIABATS (in A.U.):

STATE PAIR      X         Y         Z
    1    1  0.261901 -0.271655  0.668722
    2    1 -0.040134  0.014760 -0.134555
    2    2  0.317210 -0.069980  0.325502
    3    1 -0.056539  0.141570  0.082816
    3    2  0.071422  0.056494 -0.002694
    3    3  0.421785 -0.499729  0.249703


TRANSITION DIPOLES BETWEEN DIABATS (in A.U.):

STATE PAIR      X         Y         Z
    1    1  0.267534 -0.226951  0.728047
    2    1 -0.015042 -0.053646 -0.000382
    2    2  0.271583 -0.242118  0.253018
    3    1 -0.058761  0.048229 -0.011064
    3    2 -0.022410  0.241025  0.031796
    3    3  0.461778 -0.372295  0.262862

TRANSITION DIPOLES BETWEEN DIRECT MAX. DIABATS (in A.U.):

STATE PAIR      X         Y         Z
    1    1  0.267537 -0.226952  0.728047
    2    1 -0.015042 -0.053651 -0.000381
    2    2  0.271584 -0.242121  0.253018
    3    1 -0.058765  0.048231 -0.011055
    3    2 -0.022411  0.241025  0.031796
    3    3  0.461776 -0.372291  0.262862
 No $TRANST Group Found.
 Quit without doing spin-orbit coupling
 ..... DONE WITH MP2 ENERGY .....
 CPU     0: STEP CPU TIME=     0.00 TOTAL CPU TIME=         14.8 (      0.2 MIN)
 TOTAL WALL CLOCK TIME=         14.8 SECONDS, CPU UTILIZATION IS    99.86%
            100000000  WORDS OF DYNAMIC MEMORY USED
 EXECUTION OF GAMESS TERMINATED NORMALLY Wed Nov 16 18:48:07 2022
 DDI: 715512 bytes (0.7 MB / 0 MWords) used by master data server.

 ----------------------------------------
 CPU timing information for all processes
 ========================================
 0: 14.398 + 0.384 = 14.782
 ----------------------------------------
Note: The following floating-point exceptions are signalling: IEEE_DENORMAL
 ddikick.x: exited gracefully.
unset echo
----- accounting info -----
Files used on the master node io002 were:
-rw-r--r-- 1 bsonghao nooijen   20709 Nov 16 18:47 /scratch/bsonghao/nh3_diabatization_2d_at_mode_7_8_dist-0.5_0.6.F05
-rw-r--r-- 1 bsonghao nooijen  363520 Nov 16 18:48 /scratch/bsonghao/nh3_diabatization_2d_at_mode_7_8_dist-0.5_0.6.F09
-rw-r--r-- 1 bsonghao nooijen 1995920 Nov 16 18:48 /scratch/bsonghao/nh3_diabatization_2d_at_mode_7_8_dist-0.5_0.6.F10
-rw-r--r-- 1 bsonghao nooijen  131264 Nov 16 18:48 /scratch/bsonghao/nh3_diabatization_2d_at_mode_7_8_dist-0.5_0.6.F13
-rw-r--r-- 1 bsonghao nooijen  180312 Nov 16 18:48 /scratch/bsonghao/nh3_diabatization_2d_at_mode_7_8_dist-0.5_0.6.F15
-rw-r--r-- 1 bsonghao nooijen       0 Nov 16 18:47 /scratch/bsonghao/nh3_diabatization_2d_at_mode_7_8_dist-0.5_0.6.F16
-rw-r--r-- 1 bsonghao nooijen    9808 Nov 16 18:48 /scratch/bsonghao/nh3_diabatization_2d_at_mode_7_8_dist-0.5_0.6.F70
-rw-r--r-- 1 bsonghao nooijen    9808 Nov 16 18:48 /scratch/bsonghao/nh3_diabatization_2d_at_mode_7_8_dist-0.5_0.6.F71
-rw-r--r-- 1 bsonghao nooijen   19608 Nov 16 18:48 /scratch/bsonghao/nh3_diabatization_2d_at_mode_7_8_dist-0.5_0.6.F72
-rw-r--r-- 1 bsonghao nooijen   19608 Nov 16 18:48 /scratch/bsonghao/nh3_diabatization_2d_at_mode_7_8_dist-0.5_0.6.F73
-rw-r--r-- 1 bsonghao nooijen 1920824 Nov 16 18:48 /scratch/bsonghao/nh3_diabatization_2d_at_mode_7_8_dist-0.5_0.6.F74
-rw-r--r-- 1 bsonghao nooijen       0 Nov 16 18:47 /scratch/bsonghao/nh3_diabatization_2d_at_mode_7_8_dist-0.5_0.6.F75
-rw-r--r-- 1 bsonghao nooijen   58848 Nov 16 18:48 /scratch/bsonghao/nh3_diabatization_2d_at_mode_7_8_dist-0.5_0.6.F76
-rw-r--r-- 1 bsonghao nooijen       0 Nov 16 18:47 /scratch/bsonghao/nh3_diabatization_2d_at_mode_7_8_dist-0.5_0.6.F77
-rw-r--r-- 1 bsonghao nooijen    1864 Nov 16 18:48 /scratch/bsonghao/nh3_diabatization_2d_at_mode_7_8_dist-0.5_0.6.F78
-rw-r--r-- 1 bsonghao nooijen   39208 Nov 16 18:48 /scratch/bsonghao/nh3_diabatization_2d_at_mode_7_8_dist-0.5_0.6.F79
-rw-r--r-- 1 bsonghao nooijen     104 Nov 16 18:48 /scratch/bsonghao/nh3_diabatization_2d_at_mode_7_8_dist-0.5_0.6.F80
-rw-r--r-- 1 bsonghao nooijen   13472 Nov 16 18:48 /scratch/bsonghao/nh3_diabatization_2d_at_mode_7_8_dist-0.5_0.6.F81
-rw-r--r-- 1 bsonghao nooijen      16 Nov 16 18:48 /scratch/bsonghao/nh3_diabatization_2d_at_mode_7_8_dist-0.5_0.6.F82
-rw-r--r-- 1 bsonghao nooijen   19216 Nov 16 18:48 /scratch/bsonghao/nh3_diabatization_2d_at_mode_7_8_dist-0.5_0.6.F83
-rw-r--r-- 1 bsonghao nooijen   29712 Nov 16 18:48 /scratch/bsonghao/nh3_diabatization_2d_at_mode_7_8_dist-0.5_0.6.F84
-rw-r--r-- 1 bsonghao nooijen  401576 Nov 16 18:48 /scratch/bsonghao/nh3_diabatization_2d_at_mode_7_8_dist-0.5_0.6.F85
-rw-r--r-- 1 bsonghao nooijen  903672 Nov 16 18:48 /scratch/bsonghao/nh3_diabatization_2d_at_mode_7_8_dist-0.5_0.6.F86
-rw-r--r-- 1 bsonghao nooijen     656 Nov 16 18:48 /scratch/bsonghao/nh3_diabatization_2d_at_mode_7_8_dist-0.5_0.6.F87
-rw-r--r-- 1 bsonghao nooijen   41008 Nov 16 18:48 /scratch/bsonghao/nh3_diabatization_2d_at_mode_7_8_dist-0.5_0.6.F88
-rw-r--r-- 1 bsonghao nooijen     240 Nov 16 18:48 /scratch/bsonghao/nh3_diabatization_2d_at_mode_7_8_dist-0.5_0.6.F89
-rw-r--r-- 1 bsonghao nooijen       0 Nov 16 18:47 /scratch/bsonghao/nh3_diabatization_2d_at_mode_7_8_dist-0.5_0.6.F90
-rw-r--r-- 1 bsonghao nooijen   13760 Nov 16 18:48 /scratch/bsonghao/nh3_diabatization_2d_at_mode_7_8_dist-0.5_0.6.F91
-rw-r--r-- 1 bsonghao nooijen   22776 Nov 16 18:48 /scratch/bsonghao/nh3_diabatization_2d_at_mode_7_8_dist-0.5_0.6.F92
-rw-r--r-- 1 bsonghao nooijen   23168 Nov 16 18:48 /scratch/bsonghao/nh3_diabatization_2d_at_mode_7_8_dist-0.5_0.6.F93
-rw-r--r-- 1 bsonghao nooijen   22776 Nov 16 18:48 /scratch/bsonghao/nh3_diabatization_2d_at_mode_7_8_dist-0.5_0.6.F94
-rw-r--r-- 1 bsonghao nooijen   13760 Nov 16 18:48 /scratch/bsonghao/nh3_diabatization_2d_at_mode_7_8_dist-0.5_0.6.F95
-rw-r--r-- 1 bsonghao nooijen   29440 Nov 16 18:48 /scratch/bsonghao/nh3_diabatization_2d_at_mode_7_8_dist-0.5_0.6.F96
-rw-r--r-- 1 bsonghao nooijen    1184 Nov 16 18:48 /scratch/bsonghao/nh3_diabatization_2d_at_mode_7_8_dist-0.5_0.6.F97
-rw-r--r-- 1 bsonghao nooijen    9808 Nov 16 18:48 /scratch/bsonghao/nh3_diabatization_2d_at_mode_7_8_dist-0.5_0.6.F98
-rw-r--r-- 1 bsonghao nooijen   30264 Nov 16 18:48 /scratch/bsonghao/nh3_diabatization_2d_at_mode_7_8_dist-0.5_0.6.F99
ls: No match.
ls: No match.
ls: No match.
Wed 16 Nov 2022 06:48:10 PM EST
0.300u 0.035s 0:18.15 1.8%	0+0k 48+232io 0pf+0w
