----- GAMESS execution script 'rungms' -----
This job is running on host io002
under operating system Linux at Wed 16 Nov 2022 07:43:56 PM EST
Available scratch disk space (Kbyte units) at beginning of the job is
Filesystem       1K-blocks       Used   Available Use% Mounted on
/dev/sdc1      15378471580 3278917120 11318349060  23% /scratch
GAMESS temporary binary files will be written to /scratch/bsonghao
GAMESS supplementary output files will be written to /home/bsonghao/.gamess_ascii_files/267638
Copying input file nh3_diabatization_2d_at_mode_7_8_dist0.3_-0.4.inp to your run's scratch directory...
cp nh3_diabatization_2d_at_mode_7_8_dist0.3_-0.4.inp /scratch/bsonghao/nh3_diabatization_2d_at_mode_7_8_dist0.3_-0.4.F05
unset echo
/home/bjb2chen/gamess/ddikick.x /home/bjb2chen/gamess/gamess.00.x nh3_diabatization_2d_at_mode_7_8_dist0.3_-0.4 -ddi 1 1 io002 -scr /scratch/bsonghao

 Distributed Data Interface kickoff program.
 Initiating 1 compute processes on 1 nodes to run the following command:
 /home/bjb2chen/gamess/gamess.00.x nh3_diabatization_2d_at_mode_7_8_dist0.3_-0.4 

          ******************************************************
          *         GAMESS VERSION = 02 AUG 2018 (R2)         *
          *             FROM IOWA STATE UNIVERSITY             *
          * M.W.SCHMIDT, K.K.BALDRIDGE, J.A.BOATZ, S.T.ELBERT, *
          *   M.S.GORDON, J.H.JENSEN, S.KOSEKI, N.MATSUNAGA,   *
          *          K.A.NGUYEN, S.J.SU, T.L.WINDUS,           *
          *       TOGETHER WITH M.DUPUIS, J.A.MONTGOMERY       *
          *         J.COMPUT.CHEM.  14, 1347-1363(1993)        *
          **************** 64 BIT LINUX VERSION ****************

  SINCE 1993, STUDENTS AND POSTDOCS WORKING AT IOWA STATE UNIVERSITY
  AND ALSO IN THEIR VARIOUS JOBS AFTER LEAVING ISU HAVE MADE IMPORTANT
  CONTRIBUTIONS TO THE CODE:
     IVANA ADAMOVIC, CHRISTINE AIKENS, YURI ALEXEEV, POOJA ARORA,
     ANDREY ASADCHEV, ROB BELL, PRADIPTA BANDYOPADHYAY, JONATHAN BENTZ,
     BRETT BODE, KURT BRORSEN, CALEB CARLIN, GALINA CHABAN, WEI CHEN,
     CHEOL HO CHOI, PAUL DAY, ALBERT DEFUSCO, NUWAN DESILVA, TIM DUDLEY,
     DMITRI FEDOROV, ALEX FINDLATER, GRAHAM FLETCHER, MARK FREITAG,
     KURT GLAESEMANN, ANASTASIA GUININA,
     DAN KEMP, GRANT MERRILL, NORIYUKI MINEZAWA, JONATHAN MULLIN,
     TAKESHI NAGATA, SEAN NEDD, HEATHER NETZLOFF, BOSILJKA NJEGIC, RYAN OLSON,
     MIKE PAK, BUU PHAM,
     SPENCER PRUITT, LUKE ROSKOP, JIM SHOEMAKER, LYUDMILA SLIPCHENKO,
     TONY SMITH, SAROM SOK LEANG, JIE SONG, TETSUYA TAKETSUGU, SIMON WEBB,
     PENG XU, SOOHAENG YOO, FEDERICO ZAHARIEV

  ADDITIONAL CODE HAS BEEN PROVIDED BY COLLABORATORS IN OTHER GROUPS:
     IOWA STATE UNIVERSITY:
          JOE IVANIC, AARON WEST, LAIMUTIS BYTAUTAS, KLAUS RUEDENBERG
     UNIVERSITY OF TOKYO: KIMIHIKO HIRAO, TAKAHITO NAKAJIMA,
          TAKAO TSUNEDA, MUNEAKI KAMIYA, SUSUMU YANAGISAWA,
          KIYOSHI YAGI, MAHITO CHIBA, SEIKEN TOKURA, NAOAKI KAWAKAMI
     UNIVERSITY OF AARHUS: FRANK JENSEN
     UNIVERSITY OF IOWA: VISVALDAS KAIRYS, HUI LI
     NATIONAL INST. OF STANDARDS AND TECHNOLOGY: WALT STEVENS, DAVID GARMER
     UNIVERSITY OF PISA: BENEDETTA MENNUCCI, JACOPO TOMASI
     UNIVERSITY OF MEMPHIS: HENRY KURTZ, PRAKASHAN KORAMBATH
     UNIVERSITY OF ALBERTA: TOBY ZENG, MARIUSZ KLOBUKOWSKI
     UNIVERSITY OF NEW ENGLAND: MARK SPACKMAN
     MIE UNIVERSITY: HIROAKI UMEDA
     NAT. INST. OF ADVANCED INDUSTRIAL SCIENCE AND TECHNOLOGY: KAZUO KITAURA
     MICHIGAN STATE UNIVERSITY:
          KAROL KOWALSKI, MARTA WLOCH, JEFFREY GOUR, JESSE LUTZ,
          WEI LI, JUN SHEN, J. EMILIANO DEUSTUA, PIOTR PIECUCH
     UNIVERSITY OF MINNESOTA:
          YINAN SHU
     UNIVERSITY OF SILESIA: MONIKA MUSIAL, STANISLAW KUCHARSKI
     FACULTES UNIVERSITAIRES NOTRE-DAME DE LA PAIX:
          OLIVIER QUINET, BENOIT CHAMPAGNE
     UNIVERSITY OF CALIFORNIA - SANTA BARBARA: BERNARD KIRTMAN
     INSTITUTE FOR MOLECULAR SCIENCE:
          KAZUYA ISHIMURA, MICHIO KATOUDA, AND SHIGERU NAGASE
     UNIVERSITY OF NOTRE DAME: ANNA POMOGAEVA, DAN CHIPMAN
     KYUSHU UNIVERSITY:
          HARUYUKI NAKANO,
          FENG LONG GU, JACEK KORCHOWIEC, MARCIN MAKOWSKI, AND YURIKO AOKI,
          HIROTOSHI MORI AND EISAKU MIYOSHI
     PENNSYLVANIA STATE UNIVERSITY:
          TZVETELIN IORDANOV, CHET SWALINA, JONATHAN SKONE,
          SHARON HAMMES-SCHIFFER
     WASEDA UNIVERSITY:
          MASATO KOBAYASHI, TOMOKO AKAMA, TSUGUKI TOUMA,
          TAKESHI YOSHIKAWA, YASUHIRO IKABATA, JUNJI SEINO,
          YUYA NAKAJIMA, HIROMI NAKAI
     NANJING UNIVERSITY: SHUHUA LI
     UNIVERSITY OF NEBRASKA:
          PEIFENG SU, DEJUN SI, NANDUN THELLAMUREGE, YALI WANG, HUI LI
     UNIVERSITY OF ZURICH: ROBERTO PEVERATI, KIM BALDRIDGE
     N. COPERNICUS UNIVERSITY AND JACKSON STATE UNIVERSITY:
          MARIA BARYSZ
     UNIVERSITY OF COPENHAGEN: Jimmy Kromann, CASPER STEINMANN
     TOKYO INSTITUTE OF TECHNOLOGY: HIROYA NAKATA
     NAGOYA UNIVERSITY: YOSHIO NISHIMOTO, STEPHAN IRLE
     MOSCOW STATE UNIVERSITY: VLADIMIR MIRONOV

 EXECUTION OF GAMESS BEGUN Wed Nov 16 19:43:56 2022

            ECHO OF THE FIRST FEW INPUT CARDS -
 INPUT CARD> $system kdiag=3 mwords=100 memddi=1000 parall=.t. $end                         
 INPUT CARD> $contrl runtyp=energy ispher=1 $end                                            
 INPUT CARD> $contrl icut=9 itol=20 inttyp=rysquad qmttol=1.0d-05 nosym=1 $end              
 INPUT CARD> $scf    npunch=2 conv=1.0d-06 dirscf=.t.      $end                             
 INPUT CARD> $contrl scftyp=mcscf  mult=2 maxit=200 icharg=1 mplevl=2 $end                  
 INPUT CARD> $guess  guess=moread norb=29 purify=.t. $end                                   
 INPUT CARD> $basis  gbasis=ccd $end                                                        
 INPUT CARD> $mcscf  cistep=gmcci fullnr=.t. finci=mos                                      
 INPUT CARD>         acurcy=1.d-6 maxit=100 $end                                            
 INPUT CARD> $trans  dirtrf=.t. $end                                                        
 INPUT CARD> $mrmp   mrpt=gmcpt rdvecs=.f. $end                                             
 INPUT CARD> $gmcpt  nmofzc=0 nmodoc=1 nmoact=7 nelact=7 stsym(1)=A                         
 INPUT CARD>         reftyp=ormas nspace=1 mstart(1)=2 mine(1)=7 maxe(1)=7                  
 INPUT CARD>         kstate(1)=1,1,1                                                        
 INPUT CARD>         wstate(1)=1,1,1                                                        
 INPUT CARD>         iwgt=0 thrwgt=-1.0 krot=.f. kszdoe=.f. knospn=.f.                      
 INPUT CARD>         thrde=-1.0 edshft=0.02 $end                                            
 INPUT CARD> $data                                                                          
 INPUT CARD> NH3+ 3 states calculation at NH3 structure.                                    
 INPUT CARD> c1                                                                             
 INPUT CARD>N 7.0 0.024915672 -0.018686709000000003 -0.1693804682                           
 INPUT CARD>H 1.0 -0.554341859 0.6734845038 0.3778361901                                    
 INPUT CARD>H 1.0 -0.783617802 -0.6327535978000001 0.2406717731                             
 INPUT CARD>H 1.0 0.991749708 0.21892722400000003 0.15086941310000002                       
 INPUT CARD>$end                                                                            
 INPUT CARD>--- OPTIMIZED RHF      MO-S --- GENERATED AT Mon Nov 14 16:47:08 2022           
 INPUT CARD>E=      -56.3825050291, E(NUC)=   11.8429239490                                 
 INPUT CARD> $VEC                                                                           
 INPUT CARD> 1  1-1.00134066E+00-2.25158504E-03 3.44925845E-03 0.00000000E+00 0.00000000E+00
 INPUT CARD> 1  2-2.13170927E-03 0.00000000E+00 0.00000000E+00 6.57129898E-04-6.87950443E-05
 INPUT CARD> 1  3-6.87950443E-05 1.37590089E-04 0.00000000E+00 0.00000000E+00 0.00000000E+00
 INPUT CARD> 1  4 3.25502815E-04-4.84772356E-04 3.62525460E-04-6.27912517E-04-3.45956485E-04
 INPUT CARD> 1  5 3.25502815E-04-4.84772356E-04 3.62525460E-04 6.27912517E-04-3.45956485E-04
 INPUT CARD> 1  6 3.25502815E-04-4.84772356E-04-7.25050921E-04 0.00000000E+00-3.45956485E-04
 INPUT CARD> 2  1 1.31286642E-02-4.05911371E-01-2.82090992E-01 0.00000000E+00 0.00000000E+00
 INPUT CARD> 2  2-7.71489043E-02 0.00000000E+00 0.00000000E+00 9.73717494E-03 6.62450916E-04
 INPUT CARD> 2  3 6.62450916E-04-1.32490183E-03 0.00000000E+00 0.00000000E+00 0.00000000E+00
 INPUT CARD> 2  4-1.96090317E-01-1.96656153E-02-1.74855877E-02 3.02859263E-02 8.68214399E-03
 INPUT CARD> 2  5-1.96090317E-01-1.96656153E-02-1.74855877E-02-3.02859263E-02 8.68214399E-03
 INPUT CARD> 2  6-1.96090317E-01-1.96656153E-02 3.49711754E-02 0.00000000E+00 8.68214399E-03
 INPUT CARD> 3  1 0.00000000E+00 0.00000000E+00 0.00000000E+00 4.48608762E-01 0.00000000E+00
 INPUT CARD> 3  2 0.00000000E+00 2.18692520E-01 0.00000000E+00 0.00000000E+00 1.30198027E-02
 INPUT CARD> 3  3-1.30198027E-02 0.00000000E+00 0.00000000E+00 2.71832968E-02 0.00000000E+00
 INPUT CARD> 3  4-1.85332726E-01-7.03958951E-02 8.47929477E-03 1.95242443E-02 8.32835058E-03
 INPUT CARD> 3  5-1.85332726E-01-7.03958951E-02 8.47929477E-03-1.95242443E-02 8.32835058E-03
 INPUT CARD> 3  6 3.70665453E-01 1.40791790E-01-2.53376884E-02 0.00000000E+00-1.66567012E-02
 INPUT CARD> 4  1 0.00000000E+00 0.00000000E+00 0.00000000E+00 0.00000000E+00 4.48608762E-01
 INPUT CARD> 4  2 0.00000000E+00 0.00000000E+00 2.18692520E-01 0.00000000E+00 0.00000000E+00
 INPUT CARD> 4  3 0.00000000E+00 0.00000000E+00-1.50339731E-02 0.00000000E+00 2.71832968E-02
 INPUT CARD> 4  4 3.21005698E-01 1.21929267E-01 1.95242443E-02-1.40653607E-02-1.44251263E-02
  100000000 WORDS OF MEMORY AVAILABLE

     BASIS OPTIONS
     -------------
     GBASIS=CCD          IGAUSS=       0      POLAR=NONE    
     NDFUNC=       0     NFFUNC=       0     DIFFSP=       F
     NPFUNC=       0      DIFFS=       F     BASNAM=        


     RUN TITLE
     ---------
  NH3+ 3 states calculation at NH3 structure.                                    

 THE POINT GROUP OF THE MOLECULE IS C1      
 THE ORDER OF THE PRINCIPAL AXIS IS     0

 ATOM      ATOMIC                      COORDINATES (BOHR)
           CHARGE         X                   Y                   Z
 N           7.0     0.0470837929       -0.0353127596       -0.3200826726
 H           1.0    -1.0475542170        1.2727011692        0.7140068675
 H           1.0    -1.4808229249       -1.1957309176        0.4548037041
 H           1.0     1.8741351965        0.4137124646        0.2851018507

          INTERNUCLEAR DISTANCES (ANGS.)
          ------------------------------

                1 N          2 H          3 H          4 H     

   1 N       0.0000000    1.0555029 *  1.0949645 *  1.0458434 *
   2 H       1.0555029 *  0.0000000    1.3332815 *  1.6274321 *
   3 H       1.0949645 *  1.3332815 *  0.0000000    1.9711303 *
   4 H       1.0458434 *  1.6274321 *  1.9711303 *  0.0000000  

  * ... LESS THAN  3.000


     ATOMIC BASIS SET
     ----------------
 THE CONTRACTED PRIMITIVE FUNCTIONS HAVE BEEN UNNORMALIZED
 THE CONTRACTED BASIS FUNCTIONS ARE NOW NORMALIZED TO UNITY

  SHELL TYPE  PRIMITIVE        EXPONENT          CONTRACTION COEFFICIENT(S)

 N         

      1   S       1          9046.0000000    0.000699617413
      1   S       2          1357.0000000    0.005386054630
      1   S       3           309.3000000    0.027391021189
      1   S       4            87.7300000    0.103150591982
      1   S       5            28.5600000    0.278570663317
      1   S       6            10.2100000    0.448294849454
      1   S       7             3.8380000    0.278085928395
      1   S       8             0.7466000    0.015431561233

      2   S       9          9046.0000000   -0.000304990096
      2   S      10          1357.0000000   -0.002408026379
      2   S      11           309.3000000   -0.011944448725
      2   S      12            87.7300000   -0.048925992909
      2   S      13            28.5600000   -0.134472724725
      2   S      14            10.2100000   -0.315112577700
      2   S      15             3.8380000   -0.242857832550
      2   S      16             0.7466000    1.094382206854

      3   S      17             0.2248000    1.000000000000

      4   P      18            13.5500000    0.058905676772
      4   P      19             2.9170000    0.320461106714
      4   P      20             0.7973000    0.753042061792

      5   P      21             0.2185000    1.000000000000

      6   D      22             0.8170000    1.000000000000

 H         

      7   S      23            13.0100000    0.033498726390
      7   S      24             1.9620000    0.234800801174
      7   S      25             0.4446000    0.813682957883

      8   S      26             0.1220000    1.000000000000

      9   P      27             0.7270000    1.000000000000

 H         

     10   S      28            13.0100000    0.033498726390
     10   S      29             1.9620000    0.234800801174
     10   S      30             0.4446000    0.813682957883

     11   S      31             0.1220000    1.000000000000

     12   P      32             0.7270000    1.000000000000

 H         

     13   S      33            13.0100000    0.033498726390
     13   S      34             1.9620000    0.234800801174
     13   S      35             0.4446000    0.813682957883

     14   S      36             0.1220000    1.000000000000

     15   P      37             0.7270000    1.000000000000

 TOTAL NUMBER OF BASIS SET SHELLS             =   15
 NUMBER OF CARTESIAN GAUSSIAN BASIS FUNCTIONS =   30
 NOTE: THIS RUN WILL RESTRICT THE MO VARIATION SPACE TO SPHERICAL HARMONICS.
 THE NUMBER OF ORBITALS KEPT IN THE VARIATIONAL SPACE WILL BE PRINTED LATER.
 NUMBER OF ELECTRONS                          =    9
 CHARGE OF MOLECULE                           =    1
 SPIN MULTIPLICITY                            =    2
 NUMBER OF OCCUPIED ORBITALS (ALPHA)          =    5
 NUMBER OF OCCUPIED ORBITALS (BETA )          =    4
 TOTAL NUMBER OF ATOMS                        =    4
 THE NUCLEAR REPULSION ENERGY IS       11.4248261080

     $CONTRL OPTIONS
     ---------------
 SCFTYP=MCSCF        RUNTYP=ENERGY       EXETYP=RUN     
 MPLEVL=       2     CITYP =NONE         CCTYP =NONE         VBTYP =NONE    
 DFTTYP=NONE         TDDFT =NONE    
 MULT  =       2     ICHARG=       1     NZVAR =       0     COORD =UNIQUE  
 PP    =NONE         RELWFN=NONE         LOCAL =NONE         NUMGRD=       F
 ISPHER=       1     NOSYM =       1     MAXIT =     200     UNITS =ANGS    
 PLTORB=       F     MOLPLT=       F     AIMPAC=       F     FRIEND=        
 NPRINT=       7     IREST =       0     GEOM  =INPUT   
 NORMF =       0     NORMP =       0     ITOL  =      20     ICUT  =       9
 INTTYP=RYSQUAD      GRDTYP=BEST         QMTTOL= 1.0E-05

     $SYSTEM OPTIONS
     ---------------
  REPLICATED MEMORY=   100000000 WORDS (ON EVERY NODE).
 DISTRIBUTED MEMDDI=        1000 MILLION WORDS IN AGGREGATE,
 MEMDDI DISTRIBUTED OVER   1 PROCESSORS IS  1000000000 WORDS/PROCESSOR.
 TOTAL MEMORY REQUESTED ON EACH PROCESSOR=  1100000000 WORDS.
 TIMLIM=      525600.00 MINUTES, OR     365.0 DAYS.
 PARALL= T  BALTYP=  DLB     KDIAG=    3  COREFL= F
 MXSEQ2=     300 MXSEQ3=     150  mem10=         0

          ----------------
          PROPERTIES INPUT
          ----------------

     MOMENTS            FIELD           POTENTIAL          DENSITY
 IEMOM =       1   IEFLD =       0   IEPOT =       0   IEDEN =       0
 WHERE =COMASS     WHERE =NUCLEI     WHERE =NUCLEI     WHERE =NUCLEI  
 OUTPUT=BOTH       OUTPUT=BOTH       OUTPUT=BOTH       OUTPUT=BOTH    
 IEMINT=       0   IEFINT=       0                     IEDINT=       0
                                                       MORB  =       0

     -------------------------------
     INTEGRAL TRANSFORMATION OPTIONS
     -------------------------------
     NWORD  =            0
     CUTOFF = 1.0E-09     MPTRAN =       0
     DIRTRF =       T     AOINTS =DUP     

          ----------------------
          MCSCF INPUT PARAMETERS
          ----------------------
 CONVERGER SELECTION: FOCAS = F  SOSCF = F  FULLNR = T  QUD = F  JACOBI = F
 SECULAR EQUATION METHOD CISTEP = GMCCI   
 --- GENERAL INPUT OPTIONS:
 MAXIT =     100  MICIT =       1  ACURCY= 1.000E-06
 DAMP  =   0.000  CANONC=       T  ENGTOL= 1.000E-10
 EKT   =       F  NPUNCH=       2  NWORD =         0
 REGENERATE CI AFTER CONVERGENCE = NONE    
 DIABATIZATION AFTER CONVERGENCE =        F
 --- INPUT FOR FULLNR CONVERGER:
 METHOD=DM2       FORS  =       F  DROPC =       T
 LINSER=       F  FCORE =       F  NORB  =      30

          ----------------------
          INTEGRAL INPUT OPTIONS
          ----------------------
 NOPK  =       1 NORDER=       0 SCHWRZ=       T

 ------------------------------------------
 MULTIREFERENCE PERTURBATION THEORY CONTROL
 ------------------------------------------
 MRPT=GMCPT    READ CONVERGED MCSCF VECTORS= F


     ------------------------------------------
     THE POINT GROUP IS C1 , NAXIS= 1, ORDER= 1
     ------------------------------------------

 -- VARIATIONAL SPACE WILL BE RESTRICTED TO PURE SPHERICAL HARMONICS ONLY --
 AFTER EXCLUDING CONTAMINANT COMBINATIONS FROM THE CARTESIAN GAUSSIAN BASIS
 SET, THE NUMBER OF SPHERICAL HARMONICS KEPT IN THE VARIATION SPACE IS   29

     DIMENSIONS OF THE SYMMETRY SUBSPACES ARE
 A   =   29

 ..... DONE SETTING UP THE RUN .....
 CPU     0: STEP CPU TIME=     0.04 TOTAL CPU TIME=          0.0 (      0.0 MIN)
 TOTAL WALL CLOCK TIME=          0.0 SECONDS, CPU UTILIZATION IS   100.00%

          ********************
          1 ELECTRON INTEGRALS
          ********************
 TIME TO DO   DIPOLE INTEGRALS=      0.00
 ...... END OF ONE-ELECTRON INTEGRALS ......
 CPU     0: STEP CPU TIME=     0.00 TOTAL CPU TIME=          0.0 (      0.0 MIN)
 TOTAL WALL CLOCK TIME=          0.1 SECONDS, CPU UTILIZATION IS    80.00%

          -------------
          GUESS OPTIONS
          -------------
          GUESS =MOREAD            NORB  =      29          NORDER=       0
          MIX   =       F          PRTMO =       F          PUNMO =       F
          TOLZ  = 1.0E-08          TOLE  = 1.0E-05
          SYMDEN=       F          PURIFY=       T

 INITIAL GUESS ORBITALS GENERATED BY MOREAD   ROUTINE.

 STATISTICS FOR GENERATION OF SYMMETRY ORBITAL -Q- MATRIX
 NUMBER OF CARTESIAN ATOMIC ORBITALS=         30
 NUMBER OF SPHERICAL CONTAMINANTS DROPPED=     1
 NUMBER OF LINEARLY DEPENDENT MOS DROPPED=     0
 TOTAL NUMBER OF MOS IN VARIATION SPACE=      29
 ORBITAL PURIFICATION WILL OCCUR

 SYMMETRIES FOR INITIAL GUESS ORBITALS FOLLOW.   BOTH SET(S).
     5 ORBITALS ARE OCCUPIED (    1 CORE ORBITALS).
     1=A        2=A        3=A        4=A        5=A        6=A        7=A   
     8=A        9=A       10=A       11=A       12=A       13=A       14=A   
    15=A       16=A       17=A       18=A       19=A       20=A       21=A   
    22=A       23=A       24=A       25=A       26=A       27=A       28=A   
    29=A   
 ...... END OF INITIAL ORBITAL SELECTION ......
 CPU     0: STEP CPU TIME=     0.01 TOTAL CPU TIME=          0.1 (      0.0 MIN)
 TOTAL WALL CLOCK TIME=          0.1 SECONDS, CPU UTILIZATION IS   100.00%

                    ----------------------
                    AO INTEGRAL TECHNOLOGY
                    ----------------------
     S,P,L SHELL ROTATED AXIS INTEGRALS, REPROGRAMMED BY
        KAZUYA ISHIMURA (IMS) AND JOSE SIERRA (SYNSTAR).
     S,P,D,L SHELL ROTATED AXIS INTEGRALS PROGRAMMED BY
        KAZUYA ISHIMURA (INSTITUTE FOR MOLECULAR SCIENCE).
     S,P,D,F,G SHELL TO TOTAL QUARTET ANGULAR MOMENTUM SUM 5,
        ERIC PROGRAM BY GRAHAM FLETCHER (ELORET AND NASA ADVANCED
        SUPERCOMPUTING DIVISION, AMES RESEARCH CENTER).
     S,P,D,F,G,L SHELL GENERAL RYS QUADRATURE PROGRAMMED BY
        MICHEL DUPUIS (PACIFIC NORTHWEST NATIONAL LABORATORY).

          --------------------
          2 ELECTRON INTEGRALS
          --------------------

 DIRECT SCF METHOD SKIPS INTEGRAL STORAGE ON DISK.
 DIRECT TRANSFORMATION SKIPS AO INTEGRAL STORAGE ON DISK.
  ...... END OF TWO-ELECTRON INTEGRALS .....
 STEP CPU TIME =     0.02 TOTAL CPU TIME =          0.1 (      0.0 MIN)
 TOTAL WALL CLOCK TIME=          0.1 SECONDS, CPU UTILIZATION IS   100.00%
 DDI: Creating Array [0] - 900 x 36 = 32400 words.
 DDI: Creating Array [1] - 21 x 288 = 6048 words.
 DDI: Creating Array [2] - 36 x 36 = 1296 words.
 DDI: Creating Array [3] - 465 x 36 = 16740 words.

          -----------------
          MCSCF CALCULATION
          -----------------

 ----- NUCLEAR ENERGY ----- =        11.4248261080

     -------------------------------------------------
     GMC-PT/GMC-QDPT or general MCSCF input parameters
     -------------------------------------------------
 # of frozen core orbs. =         0 ->         0
 # of doubly occ. orbs. =         1
 # of active      orbs. =         7
 # of virtual     orbs. =        21
 # of active electrons  =         7
 # of states in CI      =         3
 Highest state in CI    =         3
 kstate =  1 1 1
 avecoe =  0.333 0.333 0.333
 State symmetry           = A           
 Assigned symmetry number = 1

 <<<Act. MO sym.: 1111111

 <<<Division of 1-ext.:  0
 <<<Division of 2-ext.:  0

 *** Reference space

 Reference type: ORMAS (= Occupation restricted multiple active space)
 # of orbitals          =  7
 # of minimum electrons =  7
 # of maximum electrons =  7
 State symmetry    =    1 (input)
 2*Sz              =    1 (input)
 Spin multiplicity =    2 (input)
 Dimension of reference space =      1225  (from      3432 walks)

 Dimension of reference space =      1225  (from      1225 walks)

 <<<Ionized spaces for Ref-CI:
      0:         1225 /   -1-0:         1960 /  0-1-0:         2891

 EVALUATING EXCHANGE INTEGRALS FOR DIRECT INTEGRAL TRANSFORMATION
 SCHWARZ INEQUALITY OVERHEAD:       465 INTEGRALS, T=        0.00

     --------------------------------------------
     PARTIAL TWO ELECTRON INTEGRAL TRANSFORMATION
     --------------------------------------------

 NUMBER OF CORE MOLECULAR ORBITALS     =    1
 NUMBER OF OCCUPIED MOLECULAR ORBITALS =    8
 TOTAL NUMBER OF MOLECULAR ORBITALS    =   29
 TOTAL NUMBER OF ATOMIC ORBITALS       =   30
 THRESHOLD FOR KEEPING TRANSFORMED 2E- INTEGRALS = 1.000E-09

 -------------------------------     ------------------------------
 DISTRIBUTED DATA TRANSFORMATION     PROGRAM WRITTEN BY G. FLETCHER
 -------------------------------     ------------------------------

 THE DISTRIBUTED MEMORY REQUIRED FOR THIS STEP IS MEMDDI=         1 MWORDS
 CREATING DISTRIBUTED STORAGE FOR [VIR OCC|VIR OCC] INTEGRALS
 CREATING DISTRIBUTED STORAGE FOR [VIR OCC|OCC OCC] INTEGRALS
 CREATING DISTRIBUTED STORAGE FOR [OCC OCC|OCC OCC] INTEGRALS
 CREATING DISTRIBUTED STORAGE FOR [VIR VIR|OCC OCC] INTEGRALS
 FOR    1 PROCESSORS, THE REPLICATED MEMORY NEEDED IS       73700 WORDS.
 SCHWARZ INEQUALITY OVERHEAD:       465 INTEGRALS, T=        0.01

      DIRECT 4-INDEX TRANSFORMATION 
      SCHWARZ INEQUALITY TEST SKIPPED          0 INTEGRAL BLOCKS
 ----- FROZEN CORE ENERGY =       -47.7132800070
 ... END OF INTEGRAL TRANSFORMATION ...
 CPU     0: STEP CPU TIME=     0.22 TOTAL CPU TIME=          0.3 (      0.0 MIN)
 TOTAL WALL CLOCK TIME=          0.3 SECONDS, CPU UTILIZATION IS   100.00%

     --------------------------------     -----------------------------
     MCHF NEWTON-RAPHSON OPTIMIZATION     CODE WRITTEN BY MICHEL DUPUIS
     --------------------------------     -----------------------------
     PARALLEL VERSION WRITTEN BY G. FLETCHER (ELORET)
     NASA ADVANCED SUPERCOMPUTING DIVISION, AMES RESEARCH CENTER

 NUMBER OF INDEPENDENT ORBITAL ROTATION PARAMETERS =   175
 ..... DONE SOLVING NEWTON-RAPHSON EQUATIONS .....
 CPU     0: STEP CPU TIME=     0.93 TOTAL CPU TIME=          1.2 (      0.0 MIN)
 TOTAL WALL CLOCK TIME=          1.2 SECONDS, CPU UTILIZATION IS    99.19%
 ..... DONE WITH NTN-RPH ORBITAL ROTATIONS ..... 
 CPU     0: STEP CPU TIME=     0.00 TOTAL CPU TIME=          1.2 (      0.0 MIN)
 TOTAL WALL CLOCK TIME=          1.2 SECONDS, CPU UTILIZATION IS    99.19%
 MAXIMUM MEMORY USED BY NTN-RPH CODE WAS     57645 WORDS.

 ITER     TOTAL ENERGY      DEL(E)  LAGRANGIAN ASYMMETRY   SQCDF  MICIT   DAMP
   1      -55.645473122 -0.645473122  0.125306   13    3 1.370E-01  1   0.0000
   2      -55.689533331 -0.044060209  0.021758   12    5 4.545E-01  1   0.0000
   3      -55.723547363 -0.034014031  0.012770   11    6 2.183E-01  1   0.0235
   4      -55.738094674 -0.014547311  0.004374   11    6 3.984E-02  1   0.0047
   5      -55.739906346 -0.001811673  0.000688   12    5 1.029E-03  1   0.0000
   6      -55.739955432 -0.000049085  0.000220   14    5 7.679E-05  1   0.0000
   7      -55.739960084 -0.000004653  0.000095   12    5 1.216E-05  1   0.0000
   8      -55.739960881 -0.000000797  0.000043   14    5 2.398E-06  1   0.0000
   9      -55.739961044 -0.000000163  0.000021   22    5 5.574E-07  1   0.0000
  10      -55.739961083 -0.000000039  0.000011   22    5 1.488E-07  1   0.0000
  11      -55.739961093 -0.000000010  0.000006   22    5 4.394E-08  1   0.0000
  12      -55.739961096 -0.000000003  0.000004   22    5 1.378E-08  1   0.0000
  13      -55.739961097 -0.000000001  0.000002   28    3 4.554E-09  1   0.0000
  14      -55.739961098 -0.000000000  0.000001   22    5 1.544E-09  1   0.0000
  15      -55.739961098 -0.000000000  0.000001   12    7 5.265E-10  1   0.0000

          --------------------
          LAGRANGIAN CONVERGED
          --------------------

 FINAL MCSCF ENERGY IS      -55.7399610977 AFTER  15 ITERATIONS

 -MCCI- BASED ON OPTIMIZED ORBITALS
 ----------------------------------

 PLEASE NOTE: IF THE ACTIVE ORBITALS ARE CANONICALIZED BELOW,
 THE FOLLOWING CI EXPANSION COEFFICIENTS AND THE DENSITY DO NOT
 CORRESPOND TO THE PRINTED ORBITALS.  THE PRINTED EXPANSIONS MATCH
 THE ORBITALS USED DURING THE LAST ITERATION.  IF YOU WISH TO SEE
 CI EXPANSIONS BASED ON THE CANONICAL (OR NATURAL) ORBITALS, YOU
 MUST RUN A CI CALCULATION WITH THAT ORBITAL CHOICE READ IN $VEC.

 Averaged energy =     -55.739961098

 State #    1  Energy =     -55.879501235  S =  0.500

      Det      Coef    Occupancy (Ignoring core)
      ---      ----    --------- --------- -----
        1   -0.930001  11110001110000
        2   -0.051559  11101001110000
        5    0.065483  01111001110000
        8    0.133083  10110101110000
       17   -0.127661  11010011110000
       36   -0.168425  11110001101000
       71   -0.102639  11110001011000
      211   -0.050033  11110000110100
      386   -0.109642  11110001010010
      701    0.090946  11110001100001
      717   -0.072754  11010011100001

 State #    2  Energy =     -55.736080963  S =  0.500

      Det      Coef    Occupancy (Ignoring core)
      ---      ----    --------- --------- -----
        1    0.179558  11110001110000
       36   -0.931434  11110001101000
       40    0.060732  01111001101000
       43    0.100580  10110101101000
       52   -0.076037  11010011101000
       71   -0.170409  11110001011000
      281   -0.054491  11110000101100
      456   -0.097247  11110001001010
      463   -0.052737  10110101001010

 State #    3  Energy =     -55.604301096  S =  0.500

      Det      Coef    Occupancy (Ignoring core)
      ---      ----    --------- --------- -----
        1   -0.068076  11110001110000
       36   -0.188824  11110001101000
       71    0.945482  11110001011000
       78   -0.067517  10110101011000
       87    0.078061  11010011011000
      316    0.071241  11110000011100
      806    0.095893  11110001001001
      822   -0.077285  11010011001001

 DENSITY MATRIX OVER ACTIVE MO-S

             1           2           3           4           5

    1    1.9768901
    2   -0.0090321   1.6350141
    3    0.0139302   0.0007747   1.6313765
    4    0.0014518  -0.0012813   0.0031836   1.6541053
    5    0.1015539   0.0164503  -0.0272892   0.0339294   0.0282528
    6    0.0050067  -0.1548534   0.0024586  -0.0211398  -0.0017770
    7    0.0044069  -0.0011395  -0.1390760   0.0320464   0.0058964

             6           7

    6    0.0346448
    7   -0.0026832   0.0397164

 FORMING THE "STANDARD FOCK OPERATOR" IN DIRECT AO INTEGRAL MODE...
 ONLY THE    1 CORE AND   21 VIRTUAL ORBITALS WILL BE CANONICALIZED

          ----------------------
          MCSCF NATURAL ORBITALS
          ----------------------

                      1          2          3          4          5
                  -15.9845     1.9829     1.6559     1.6497     1.6434
                     A          A          A          A          A   
    1  N  1  S    1.001204   0.008937  -0.010045   0.001807  -0.002422
    2  N  1  S   -0.001872   0.436989  -0.168935   0.070172  -0.055591
    3  N  1  S   -0.006310   0.306856  -0.269106   0.095824  -0.083705
    4  N  1  X    0.000076  -0.024522   0.128755   0.459827  -0.077036
    5  N  1  Y    0.000063   0.028274  -0.040022   0.070261   0.520386
    6  N  1  Z    0.001135   0.092830   0.582225  -0.101584   0.017459
    7  N  1  X   -0.000010  -0.000721   0.075202   0.164504  -0.044235
    8  N  1  Y    0.000041  -0.002391  -0.043489   0.021705   0.269978
    9  N  1  Z   -0.000479   0.010833   0.383162  -0.050454  -0.012504
   10  N  1 XX    0.000359   0.001664  -0.010577   0.006695  -0.005850
   11  N  1 YY   -0.000168  -0.002296  -0.012832  -0.001903   0.004845
   12  N  1 ZZ   -0.000191   0.000632   0.023408  -0.004791   0.001005
   13  N  1 XY    0.000181   0.000752   0.001249   0.004003  -0.014581
   14  N  1 XZ   -0.000085  -0.002168   0.003074   0.021570  -0.004440
   15  N  1 YZ    0.000113   0.000769   0.001470   0.001557   0.024420
   16  H  2  S   -0.001892   0.209389   0.083938  -0.178753   0.339148
   17  H  2  S    0.000297   0.007758   0.020955  -0.024268   0.082715
   18  H  2  X   -0.000564   0.022129   0.011724   0.008258   0.022062
   19  H  2  Y    0.000695  -0.026363  -0.014276   0.023671  -0.013462
   20  H  2  Z    0.000509  -0.015312   0.020206   0.006102  -0.019879
   21  H  3  S   -0.001732   0.175074   0.065376  -0.271910  -0.256695
   22  H  3  S    0.000432  -0.000451   0.024803  -0.036500  -0.066612
   23  H  3  X   -0.000670   0.024610   0.009243  -0.014702  -0.028131
   24  H  3  Y   -0.000596   0.021018   0.006275  -0.028506  -0.001995
   25  H  3  Z    0.000415  -0.007301   0.021755   0.007835   0.011169
   26  H  4  S   -0.001967   0.174049   0.164953   0.345282  -0.018952
   27  H  4  S    0.000598  -0.000456   0.034194   0.041400  -0.012256
   28  H  4  X    0.001025  -0.034508  -0.019299  -0.033736  -0.006290
   29  H  4  Y    0.000191  -0.005534  -0.005499  -0.008897   0.019320
   30  H  4  Z    0.000375  -0.004255   0.017186  -0.017142   0.001662

                      6          7          8
                    0.0285     0.0210     0.0187
                     A          A          A   
    1  N  1  S   -0.101618  -0.181491   0.114099
    2  N  1  S   -0.328980  -0.613795   0.346962
    3  N  1  S    0.006103  -0.186500   0.010622
    4  N  1  X   -0.180673   0.434429   0.805322
    5  N  1  Y    0.722791  -0.210412   0.365213
    6  N  1  Z   -0.136820  -0.619728   0.203655
    7  N  1  X    0.005685   0.077584   0.066246
    8  N  1  Y   -0.022786  -0.031827   0.033610
    9  N  1  Z    0.038347   0.070776  -0.052142
   10  N  1 XX    0.029703   0.028140   0.015643
   11  N  1 YY   -0.027352  -0.033218  -0.020352
   12  N  1 ZZ   -0.002351   0.005078   0.004709
   13  N  1 XY    0.046236  -0.000626  -0.023984
   14  N  1 XZ   -0.003003  -0.045042  -0.038328
   15  N  1 YZ   -0.014716   0.021531  -0.028700
   16  H  2  S   -0.491307   0.701340  -0.083234
   17  H  2  S   -0.144934   0.112482  -0.015825
   18  H  2  X   -0.021429   0.025981  -0.041518
   19  H  2  Y    0.011960  -0.072535  -0.006452
   20  H  2  Z    0.019932   0.005258   0.002256
   21  H  3  S    0.620424   0.425330   0.358617
   22  H  3  S    0.141770   0.050621   0.098134
   23  H  3  X    0.057887   0.027862   0.011836
   24  H  3  Y    0.025569   0.053431   0.026748
   25  H  3  Z   -0.005039   0.024694   0.006162
   26  H  4  S    0.342989   0.157812  -0.792369
   27  H  4  S    0.056537  -0.006217  -0.142775
   28  H  4  X   -0.029716  -0.032123   0.082711
   29  H  4  Y   -0.020898  -0.002491   0.012067
   30  H  4  Z   -0.003295   0.007587  -0.019171

          ------------------------
          MCSCF OPTIMIZED ORBITALS
          ------------------------

                      1          2          3          4          5
                  -15.9845     0.0000     0.0000     0.0000     0.0000
                     A          A          A          A          A   
    1  N  1  S    1.001204  -0.002843  -0.007425   0.003511  -0.015919
    2  N  1  S   -0.001872   0.400981   0.010730  -0.011888  -0.194961
    3  N  1  S   -0.006310   0.304267   0.049080  -0.059032  -0.283404
    4  N  1  X    0.000076  -0.006007   0.391440  -0.028620   0.028723
    5  N  1  Y    0.000063   0.010332  -0.002225   0.453463  -0.018141
    6  N  1  Z    0.001135   0.052316   0.000233   0.004243   0.580307
    7  N  1  X   -0.000010   0.007099   0.170414  -0.028617   0.042205
    8  N  1  Y    0.000041  -0.014104  -0.017072   0.271130  -0.037872
    9  N  1  Z   -0.000479   0.012760   0.025774  -0.025288   0.387370
   10  N  1 XX    0.000359   0.003773   0.003648  -0.007549  -0.010918
   11  N  1 YY   -0.000168  -0.004254  -0.002548   0.007294  -0.012909
   12  N  1 ZZ   -0.000191   0.000481  -0.001100   0.000255   0.023827
   13  N  1 XY    0.000181   0.002588   0.008835  -0.017426   0.001523
   14  N  1 XZ   -0.000085  -0.003155   0.026655  -0.001357  -0.001136
   15  N  1 YZ    0.000113   0.000972   0.000844   0.026323   0.002187
   16  H  2  S   -0.001892   0.215543  -0.222719   0.369935   0.123070
   17  H  2  S    0.000297   0.006528  -0.033659   0.092492   0.025276
   18  H  2  X   -0.000564   0.022711   0.009791   0.026186   0.011152
   19  H  2  Y    0.000695  -0.028217   0.025367  -0.012753  -0.019319
   20  H  2  Z    0.000509  -0.013897   0.012192  -0.021593   0.018408
   21  H  3  S   -0.001732   0.204905  -0.259737  -0.336513   0.122826
   22  H  3  S    0.000432   0.004915  -0.030877  -0.084189   0.031788
   23  H  3  X   -0.000670   0.027498  -0.010813  -0.033737   0.012671
   24  H  3  Y   -0.000596   0.022983  -0.030183  -0.006871   0.012365
   25  H  3  Z    0.000415  -0.006679   0.009288   0.011732   0.020278
   26  H  4  S   -0.001967   0.206028   0.437434   0.010755   0.120046
   27  H  4  S    0.000598   0.003502   0.061969  -0.010013   0.028731
   28  H  4  X    0.001025  -0.038040  -0.041949  -0.010209  -0.015430
   29  H  4  Y    0.000191  -0.007107  -0.012994   0.019554  -0.003852
   30  H  4  Z    0.000375  -0.004251  -0.012177   0.000095   0.020220

                      6          7          8          9         10
                    0.0000     0.0000     0.0000     0.1471     0.2013
                     A          A          A          A          A   
    1  N  1  S    0.230967   0.051403  -0.012524  -0.139041   0.000957
    2  N  1  S    0.783206   0.136516  -0.042043  -0.211251  -0.007746
    3  N  1  S    0.178434  -0.065458   0.052789   1.402776  -0.101633
    4  N  1  X   -0.068011   0.972049  -0.007624   0.029288   0.127490
    5  N  1  Y    0.046013   0.085088   0.873381  -0.030126   0.058903
    6  N  1  Z    0.675649  -0.026399   0.075998  -0.207146  -0.008412
    7  N  1  X   -0.046659   0.105910   0.005348  -0.147318  -0.775147
    8  N  1  Y    0.040082   0.019893   0.021903   0.099327  -0.169030
    9  N  1  Z   -0.082818  -0.019444  -0.008488   0.466742   0.045595
   10  N  1 XX   -0.030132   0.018949   0.025334   0.072596  -0.051972
   11  N  1 YY    0.031866  -0.025905  -0.023063  -0.027464   0.035528
   12  N  1 ZZ   -0.001734   0.006956  -0.002271  -0.045132   0.016444
   13  N  1 XY   -0.022166  -0.030939   0.033240   0.030158  -0.025304
   14  N  1 XZ    0.029200  -0.049063  -0.004755  -0.044181  -0.105049
   15  N  1 YZ   -0.023413  -0.013907  -0.025776   0.034830  -0.014616
   16  H  2  S   -0.476206   0.290334  -0.615569   0.222440   0.235357
   17  H  2  S   -0.056448   0.059030  -0.157476  -0.759887  -0.829683
   18  H  2  X   -0.027656  -0.021240  -0.037448  -0.093535  -0.009670
   19  H  2  Y    0.056962  -0.034957   0.025382   0.036708   0.027738
   20  H  2  Z   -0.010614   0.001244   0.015624   0.060887   0.046168
   21  H  3  S   -0.461626   0.332216   0.554931   0.350139   0.220478
   22  H  3  S   -0.060736   0.074799   0.142536  -0.931859  -0.854572
   23  H  3  X   -0.038670   0.008198   0.047237  -0.087083  -0.036938
   24  H  3  Y   -0.046606   0.036876   0.018722  -0.021038  -0.029530
   25  H  3  Z   -0.018329   0.017586  -0.007806   0.033730   0.071742
   26  H  4  S   -0.487068  -0.679446   0.016495   0.319095  -0.528725
   27  H  4  S   -0.056748  -0.136483   0.005228  -0.785748   1.898801
   28  H  4  X    0.061943   0.063746   0.006888   0.097118  -0.102646
   29  H  4  Y    0.012191   0.013070  -0.012878   0.011908  -0.031252
   30  H  4  Z   -0.011527  -0.014351  -0.011490  -0.007622  -0.076838

                     11         12         13         14         15
                    0.2204     0.5360     0.5952     0.6510     0.7926
                     A          A          A          A          A   
    1  N  1  S    0.027203   0.074029   0.021945  -0.040020  -0.290140
    2  N  1  S    0.054998   0.085407   0.159698  -0.146982  -0.669590
    3  N  1  S   -0.174487  -0.547176   0.405281  -0.039891   1.115705
    4  N  1  X    0.046697   0.290076  -0.038148  -0.392829   0.056630
    5  N  1  Y    0.020505  -0.495928  -0.383180  -0.167353   0.028469
    6  N  1  Z    0.041820   0.438688  -0.465695   0.255372   0.238071
    7  N  1  X   -0.110637  -0.745755   0.079341   1.834391  -0.238626
    8  N  1  Y   -0.481744   0.992273   1.194188   0.527426  -0.168364
    9  N  1  Z   -0.127676  -0.575222   0.874499  -0.538818  -0.146918
   10  N  1 XX    0.016423   0.016290  -0.077384  -0.006502  -0.089150
   11  N  1 YY   -0.010499   0.001995   0.040157   0.018028   0.135178
   12  N  1 ZZ   -0.005924  -0.018285   0.037227  -0.011526  -0.046028
   13  N  1 XY    0.088016  -0.021708   0.018250   0.033029   0.073672
   14  N  1 XZ    0.001671  -0.017191   0.010610  -0.062243   0.053317
   15  N  1 YZ   -0.076840   0.023755  -0.009769  -0.009637   0.061068
   16  H  2  S   -0.575716  -0.094056  -0.680425   0.401487   0.113128
   17  H  2  S    1.976281  -0.747459  -0.616262   0.151396  -0.152435
   18  H  2  X    0.050694  -0.107567   0.044760   0.027164   0.282667
   19  H  2  Y   -0.068707   0.027400   0.122712  -0.104398   0.366266
   20  H  2  Z   -0.047834   0.041635   0.088185   0.029271   0.009134
   21  H  3  S    0.531091   0.289930   0.019911   0.751830   0.031931
   22  H  3  S   -1.748187   0.461332   0.607086   0.458126  -0.354618
   23  H  3  X   -0.041785  -0.007175   0.124949   0.179221   0.057656
   24  H  3  Y   -0.047813   0.069103  -0.090606   0.089167  -0.426134
   25  H  3  Z    0.023634  -0.079295   0.006695   0.079021  -0.154456
   26  H  4  S    0.079379   0.461987  -0.501216  -0.506041  -0.001492
   27  H  4  S   -0.118428   0.475754   0.060268  -0.774103  -0.188320
   28  H  4  X   -0.027657  -0.062662  -0.015732   0.179241  -0.080081
   29  H  4  Y    0.030465  -0.013168   0.110232   0.110403   0.183027
   30  H  4  Z   -0.012687  -0.064989   0.052857  -0.117404   0.190101

                     16         17         18         19         20
                    0.9817     1.0343     1.2560     1.4048     1.4693
                     A          A          A          A          A   
    1  N  1  S   -0.499371  -0.237952  -0.025802  -0.378813  -0.352333
    2  N  1  S   -1.057406  -0.500779  -0.052442  -0.798508  -0.726308
    3  N  1  S    2.105965   1.163412   0.088407   1.372187   1.414528
    4  N  1  X    0.071537  -0.017368  -0.206491   0.019990  -0.017106
    5  N  1  Y   -0.034956  -0.067778  -0.150044  -0.008531   0.086120
    6  N  1  Z    0.143752   0.062210  -0.017480  -0.034544  -0.011888
    7  N  1  X   -0.320016   0.057841   0.947655   0.467380  -0.484057
    8  N  1  Y    0.213237   0.445503   0.401244  -0.142050   0.361833
    9  N  1  Z   -0.045744   0.347665  -0.020017   0.552289   0.685693
   10  N  1 XX   -0.063215   0.040444   0.073555   0.061104   0.090425
   11  N  1 YY   -0.164216   0.055379  -0.070651   0.147174  -0.045739
   12  N  1 ZZ    0.227431  -0.095822  -0.002904  -0.208278  -0.044686
   13  N  1 XY    0.002588  -0.171646  -0.041223   0.010481   0.017823
   14  N  1 XZ    0.022357   0.046471   0.034986  -0.012487   0.027544
   15  N  1 YZ   -0.035711  -0.242185   0.077171   0.015574  -0.112221
   16  H  2  S   -0.450783  -0.290774   0.020548  -0.262491  -0.527435
   17  H  2  S   -0.301267  -0.237977   0.034807  -0.064406  -0.348469
   18  H  2  X   -0.028781  -0.301880   0.207742  -0.380744   0.052034
   19  H  2  Y   -0.200587   0.247809   0.013698  -0.080620   0.082067
   20  H  2  Z    0.337785  -0.454353  -0.015506  -0.395964   0.424545
   21  H  3  S   -0.368386  -0.031488   0.475809  -0.274735  -0.470007
   22  H  3  S   -0.246792  -0.033018   0.148463  -0.044149   0.013301
   23  H  3  X   -0.045355   0.077432  -0.561706  -0.227651   0.061806
   24  H  3  Y    0.136508  -0.151615   0.201014   0.330541  -0.030532
   25  H  3  Z    0.363806   0.190961  -0.394629  -0.312003  -0.483232
   26  H  4  S   -0.200428  -0.246130  -0.494611  -0.533720  -0.248525
   27  H  4  S   -0.268429  -0.210720  -0.239870  -0.237994   0.002390
   28  H  4  X    0.004375   0.215550  -0.102499  -0.191517   0.146840
   29  H  4  Y   -0.014914  -0.425648  -0.436734   0.565951  -0.321054
   30  H  4  Z    0.282041   0.028289   0.376218  -0.057034  -0.709066

                     21         22         23         24         25
                    1.6246     1.8635     1.9003     1.9482     2.1153
                     A          A          A          A          A   
    1  N  1  S    0.131669  -0.015064   0.074236   0.160027   0.059309
    2  N  1  S    0.262135   0.005234   0.248352   0.386602   0.110180
    3  N  1  S   -0.538173   0.667133   0.908392   0.396247  -0.338803
    4  N  1  X   -0.084449   0.442237  -0.434045   0.115672  -0.122517
    5  N  1  Y    0.203018  -0.024598  -0.075973   0.310392   0.012592
    6  N  1  Z    0.026485   0.025880   0.233460   0.200008  -0.004538
    7  N  1  X    0.691771   0.182333  -0.022494   0.086962  -0.090237
    8  N  1  Y    0.453523   0.197697  -0.108231  -0.227901   0.064432
    9  N  1  Z   -0.240593   0.241262   0.354004   0.114123  -0.406842
   10  N  1 XX   -0.045660  -0.175272  -0.027194  -0.206501  -0.082546
   11  N  1 YY   -0.069977   0.221210  -0.126323   0.113871   0.880813
   12  N  1 ZZ    0.115637  -0.045937   0.153517   0.092630  -0.798267
   13  N  1 XY    0.077430  -0.130648  -0.148332   0.141856  -0.105036
   14  N  1 XZ   -0.026143  -0.126285   0.172080   0.037353   0.290593
   15  N  1 YZ   -0.161529  -0.080001  -0.099713  -0.235247  -0.152808
   16  H  2  S    0.304518  -0.203706  -0.139954  -0.036442   0.098859
   17  H  2  S   -0.213026   0.296884  -0.067982  -0.306501  -0.068166
   18  H  2  X   -0.687878   0.037321  -0.488011  -0.145060  -0.020046
   19  H  2  Y   -0.109665  -0.581877   0.067960   0.811031  -0.296386
   20  H  2  Z    0.295377  -0.029295   0.276915   0.256277   0.581840
   21  H  3  S    0.329509  -0.085509  -0.192418  -0.051354   0.103885
   22  H  3  S    0.398575  -0.124908  -0.499883   0.155376  -0.006084
   23  H  3  X    0.423975  -0.154564  -0.799913  -0.264130  -0.054306
   24  H  3  Y   -0.164342  -0.282225  -0.662179   0.651751   0.144400
   25  H  3  Z   -0.505403  -0.402645   0.185637  -0.007079   0.316143
   26  H  4  S   -0.189060  -0.167686  -0.184145  -0.097058   0.174986
   27  H  4  S   -0.030332  -0.513621  -0.005241  -0.192819   0.156047
   28  H  4  X   -0.203267   0.898558   0.033971   0.564222  -0.242680
   29  H  4  Y   -0.138905   0.149350   0.318139   0.202306  -0.162668
   30  H  4  Z    0.460589   0.253291  -0.330071   0.135129   0.111533

                     26         27         28         29
                    2.3105     2.5942     2.6515     3.0315
                     A          A          A          A   
    1  N  1  S   -0.079016  -0.085338   0.069739  -0.011972
    2  N  1  S   -0.130200  -0.015700   0.109030   0.049837
    3  N  1  S    0.625074   2.256433  -0.379018   0.843470
    4  N  1  X   -0.066545  -0.025921   0.484182   0.308808
    5  N  1  Y   -0.007162   0.284314   0.184560  -0.327786
    6  N  1  Z    0.047991   0.328746  -0.041401   0.061010
    7  N  1  X   -0.000757  -0.264917   1.357921   0.489447
    8  N  1  Y    0.362200   0.683033   0.486307  -0.490540
    9  N  1  Z    0.349005   0.599108  -0.152167   0.016242
   10  N  1 XX   -0.608947   0.784983   0.241398   0.892521
   11  N  1 YY    0.414473  -0.178673  -0.302551  -0.410976
   12  N  1 ZZ    0.194474  -0.606310   0.061152  -0.481546
   13  N  1 XY    0.656018  -0.174155  -0.301879   1.217648
   14  N  1 XZ    0.098523  -0.447945   1.184516   0.331563
   15  N  1 YZ    0.644112   0.747568   0.412927  -0.508505
   16  H  2  S   -0.291376  -1.284713   0.300039   0.883005
   17  H  2  S   -0.151330  -0.516252   0.073500   0.281714
   18  H  2  X   -0.551886  -0.535846  -0.062400   0.449145
   19  H  2  Y   -0.093741   0.666308  -0.181494  -0.547056
   20  H  2  Z   -0.215463   0.576072  -0.063336  -0.420903
   21  H  3  S   -0.124266  -0.396120   1.065345  -0.805082
   22  H  3  S   -0.030574   0.021155   0.423635  -0.240334
   23  H  3  X   -0.153769   0.046984   0.676510  -0.556184
   24  H  3  Y   -0.035380  -0.249388   0.432541  -0.496488
   25  H  3  Z    0.129889   0.220716  -0.212810   0.430524
   26  H  4  S   -0.168488  -0.775807  -0.937996  -1.014537
   27  H  4  S   -0.028896  -0.198576  -0.417113  -0.293557
   28  H  4  X    0.192424   0.582687   0.697675   0.780781
   29  H  4  Y   -0.559517   0.038011   0.272310   0.124419
   30  H  4  Z   -0.252447   0.356459  -0.000245   0.411720
 .....DONE WITH MCSCF ITERATIONS.....
 CPU     0: STEP CPU TIME=     9.65 TOTAL CPU TIME=         10.9 (      0.2 MIN)
 TOTAL WALL CLOCK TIME=         10.9 SECONDS, CPU UTILIZATION IS    99.91%

     ----------------------------------------------------------------
     PROPERTY VALUES FOR THE MCSCF SELF-CONSISTENT FIELD WAVEFUNCTION
     ----------------------------------------------------------------

          -----------------
          ENERGY COMPONENTS
          -----------------

         WAVEFUNCTION NORMALIZATION =       1.0000000000

                ONE ELECTRON ENERGY =     -94.3308275319
                TWO ELECTRON ENERGY =      27.1660403262
           NUCLEAR REPULSION ENERGY =      11.4248261080
                                      ------------------
                       TOTAL ENERGY =     -55.7399610977

 ELECTRON-ELECTRON POTENTIAL ENERGY =      27.1660403262
  NUCLEUS-ELECTRON POTENTIAL ENERGY =    -150.1353843729
   NUCLEUS-NUCLEUS POTENTIAL ENERGY =      11.4248261080
                                      ------------------
             TOTAL POTENTIAL ENERGY =    -111.5445179387
               TOTAL KINETIC ENERGY =      55.8045568409
                 VIRIAL RATIO (V/T) =       1.9988424647

          ---------------------------------------
          MULLIKEN AND LOWDIN POPULATION ANALYSES
          ---------------------------------------

     ATOMIC MULLIKEN POPULATION IN EACH MOLECULAR ORBITAL

                      1          2          3          4          5

                  2.000000   1.982875   1.655914   1.649668   1.643433

    1             2.000839   1.331283   1.531227   0.907014   1.100683
    2            -0.000311   0.271916   0.029626   0.105891   0.325707
    3            -0.000226   0.192422   0.017140   0.242896   0.207661
    4            -0.000303   0.187256   0.077921   0.393868   0.009381

                      6          7          8

                  0.028456   0.020953   0.018700

    1             0.013141   0.011273   0.010012
    2             0.004515   0.006670   0.000095
    3             0.008274   0.002731   0.001387
    4             0.002525   0.000279   0.007207
 WARNING! MCSCF POPULATIONS SHOWN ABOVE ARE FOR THE NATURAL ORBITALS.
 IGNORE THE ABOVE DATA FOR MCSCF FUNCTIONS WHICH ARE NOT OF -FORS- TYPE.
 THE FOLLOWING POPULATIONS ARE CORRECT FOR ANY MCSCF WAVEFUNCTION.

               ----- POPULATIONS IN EACH AO -----
                             MULLIKEN      LOWDIN
              1  N  1  S      2.00250     1.89912
              2  N  1  S      0.82331     0.57669
              3  N  1  S      0.66157     0.40104
              4  N  1  X      0.65676     0.57479
              5  N  1  Y      0.72043     0.65837
              6  N  1  Z      0.87590     0.82088
              7  N  1  X      0.25490     0.38069
              8  N  1  Y      0.36969     0.43924
              9  N  1  Z      0.52269     0.55990
             10  N  1 XX      0.00056     0.18230
             11  N  1 YY      0.00144     0.15325
             12  N  1 ZZ      0.00413     0.14270
             13  N  1 XY      0.00619     0.01257
             14  N  1 XZ      0.00539     0.01279
             15  N  1 YZ      0.00000     0.00933
             16  H  2  S      0.63420     0.48924
             17  H  2  S      0.05020     0.14436
             18  H  2  X      0.01820     0.03223
             19  H  2  Y      0.02302     0.04534
             20  H  2  Z      0.01848     0.04251
             21  H  3  S      0.57419     0.44429
             22  H  3  S      0.04275     0.14708
             23  H  3  X      0.02354     0.04135
             24  H  3  Y      0.01876     0.03720
             25  H  3  Z      0.01304     0.03205
             26  H  4  S      0.59050     0.46044
             27  H  4  S      0.03065     0.14491
             28  H  4  X      0.03547     0.05914
             29  H  4  Y      0.00953     0.02354
             30  H  4  Z      0.01198     0.03265

          ----- MULLIKEN ATOMIC OVERLAP POPULATIONS -----
          (OFF-DIAGONAL ELEMENTS NEED TO BE MULTIPLIED BY 2)

             1           2           3           4

    1    6.0173146
    2    0.2934299   0.4650983
    3    0.2847811  -0.0091065   0.4026133
    4    0.3099457  -0.0053117  -0.0060031   0.3795029

          TOTAL MULLIKEN AND LOWDIN ATOMIC POPULATIONS
       ATOM         MULL.POP.    CHARGE          LOW.POP.     CHARGE
    1 N             6.905471    0.094529         6.823653    0.176347
    2 H             0.744110    0.255890         0.753677    0.246323
    3 H             0.672285    0.327715         0.701977    0.298023
    4 H             0.678134    0.321866         0.720694    0.279306

          MULLIKEN SPHERICAL HARMONIC POPULATIONS
       ATOM           S       P       D      F      G      H      I    TOTAL
    1 N             3.49    3.40    0.02   0.00   0.00   0.00   0.00    6.91
    2 H             0.68    0.06    0.00   0.00   0.00   0.00   0.00    0.74
    3 H             0.62    0.06    0.00   0.00   0.00   0.00   0.00    0.67
    4 H             0.62    0.06    0.00   0.00   0.00   0.00   0.00    0.68

          ---------------------
          ELECTROSTATIC MOMENTS
          ---------------------

 POINT   1           X           Y           Z (BOHR)    CHARGE
                -0.000003    0.000002   -0.177185        1.00 (A.U.)
         DX          DY          DZ         /D/  (DEBYE)
    -0.453994    0.329833    2.147242    2.219358
 ...... END OF PROPERTY EVALUATION ......
 CPU     0: STEP CPU TIME=     0.00 TOTAL CPU TIME=         10.9 (      0.2 MIN)
 TOTAL WALL CLOCK TIME=         10.9 SECONDS, CPU UTILIZATION IS    99.91%

     -------------------------------------------------
     GMC-PT/GMC-QDPT or general MCSCF input parameters
     -------------------------------------------------
 # of frozen core orbs. =         0 ->         0
 # of doubly occ. orbs. =         1
 # of active      orbs. =         7
 # of virtual     orbs. =        21
 # of active electrons  =         7
 # of states in CI      =         3
 Highest state in CI    =         3
 kstate =  1 1 1
 avecoe =  0.333 0.333 0.333
 State symmetry           = A           
 Assigned symmetry number = 1

 <<<Act. MO sym.: 1111111

 <<<Division of 1-ext.:  0
 <<<Division of 2-ext.:  0

     ------------------------
     Orbital canonicalization
     ------------------------

 MOs are canonicalized for core, virtual, and invariant-active orbital spaces.
 This is a part of the GMC-QDPT calculation.
 SCHWARZ INEQUALITY OVERHEAD:       465 INTEGRALS, T=        0.00
 DIRECT TRANSFORMATION SKIPS AO INTEGRAL STORAGE ON DISK.

 Averaged energy =     -55.739961098

 State #    1  Energy =     -55.879501235  S =  0.500
 State #    2  Energy =     -55.736080963  S =  0.500
 State #    3  Energy =     -55.604301096  S =  0.500

 Orbital energies for filled orbital space
  -15.984533
 Orbital energies for active orbital space
   -1.517065  -0.986221  -0.850658  -0.743685   0.359095
    0.413110   0.218521
 Orbital energies for external orbital space
    0.147058   0.201344   0.220433   0.536048   0.595193
    0.650951   0.792593   0.981742   1.034273   1.255967
    1.404756   1.469268   1.624582   1.863502   1.900254
    1.948171   2.115293   2.310517   2.594192   2.651508
    3.031475

 Zero values mean non-canonical orbitals.
 ... done with orbital canonicalization ...
 CPU     0: STEP CPU TIME=     0.61 TOTAL CPU TIME=         11.5 (      0.2 MIN)
 TOTAL WALL CLOCK TIME=         11.5 SECONDS, CPU UTILIZATION IS    99.91%

     --------------------------------------------
     PARTIAL TWO ELECTRON INTEGRAL TRANSFORMATION
     --------------------------------------------

 NUMBER OF CORE MOLECULAR ORBITALS     =    0
 NUMBER OF OCCUPIED MOLECULAR ORBITALS =    8
 TOTAL NUMBER OF MOLECULAR ORBITALS    =   29
 TOTAL NUMBER OF ATOMIC ORBITALS       =   30
 THRESHOLD FOR KEEPING TRANSFORMED 2E- INTEGRALS = 1.000E-09
 AO INTEGRALS WILL BE CALCULATED IN DIRECT MODE...
 DIRECT TRANSFORMATION SKIPS AO INTEGRAL STORAGE ON DISK.
 SCHWARZ INEQUALITY OVERHEAD:       465 INTEGRALS, T=        0.00

 PLAN A: REQUIREMENTS FOR FULLY IN-MEMORY TRANSFORMATION:
 # OF WORDS AVAILABLE =            100000000
 # OF WORDS NEEDED    =               221798

 PARALLEL ONLY WORKS WITH THE SEGMENTED ALGORITHM.
 ADJUSTING MEMORY TO USE SEGMENTED ALGORITHM.


 PLAN B: REQUIREMENTS FOR THE SEGMENTED TRANSFORMATION:
       MINIMUM=         124148 WORDS FOR 1 MOLECULAR ORBITAL PER PASS
       MAXIMUM=         221798 WORDS FOR ALL MOLECULAR ORBITALS IN 1 PASS
              (          13950 EXTRA WORDS INCLUDES 1 EXTRA ORBITAL/PASS)
 THIS RUN USES=         221798 WORDS,
 DISTRIBUTING   1 PASSES EACH CONTAINING     8 ORBITALS OVER   1 PROCESSORS.

 CHOOSING SEGMENTED PARTIAL TRANSFORMATION...
 DIRECT TRANSFORMATION SKIPS AO INTEGRAL STORAGE ON DISK.
 PASS #   1 TOOK        0.05 SECONDS.
 TOTAL NUMBER OF TRANSFORMED 2E- INTEGRALS KEPT =        29226
 ... END OF INTEGRAL TRANSFORMATION ...
 CPU     0: STEP CPU TIME=     0.05 TOTAL CPU TIME=         11.5 (      0.2 MIN)
 TOTAL WALL CLOCK TIME=         11.5 SECONDS, CPU UTILIZATION IS   100.00%

     --------     ------------------------------------------
     GMC-QDPT     Program written by H.Nakano (Kyushu Univ.)
     --------     ------------------------------------------

 *** Reference space

 Reference type: ORMAS (= Occupation restricted multiple active space)
 # of orbitals          =  7
 # of minimum electrons =  7
 # of maximum electrons =  7
 State symmetry    =    1 (input)
 2*Sz              =    1 (input)
 Spin multiplicity =    2 (input)
 Dimension of reference space =      1225  (from      3432 walks)

 Dimension of reference space =      1225  (from      1225 walks)

 <<<Ionized spaces for Ref-CI:
      0:         1225 /   -1-0:         1960 /  0-1-0:         2891

 ***                    ***
 *** Reference space CI ***
 ***                    ***

 Converged after   34 iterations

 Reference wavefunctions:

 State #    1  Energy =     -55.879501235  S =  0.500

      Det      Coef    Occupancy (Ignoring core)
      ---      ----    --------- --------- -----
        1    0.976358  11110001110000
       36   -0.056598  11110001101000
      393    0.058886  10110101010010
      717    0.067187  11010011100001

 State #    2  Energy =     -55.736080963  S =  0.500

      Det      Coef    Occupancy (Ignoring core)
      ---      ----    --------- --------- -----
        1    0.059617  11110001110000
       36    0.981069  11110001101000
      463    0.059394  10110101001010

 State #    3  Energy =     -55.604301096  S =  0.500

      Det      Coef    Occupancy (Ignoring core)
      ---      ----    --------- --------- -----
       71   -0.979256  11110001011000
      822    0.067929  11010011001001

 Davidson method: CPU/Wall time =           0.46 /           0.46 sec.

 Oscillator strength (invalid if E(1)/=E(GS)):
 -----------------------------------------
   State                        f
 -----------------------------------------
     2     F(REF-CI)=        0.0013508712
     3     F(REF-CI)=        0.0023342026
 -----------------------------------------

 Dipole moment matrix elements, x, y, z, in A.U.

 Dimension of ionized spaces for PT:
 (N-2) space:         1715 /  (N-1) space:         2842 /  N space:         2891
 (N+1) space:         2842 /  (N+2) space:         1715

 <<<Ionized spaces for internal:
         0:         1225 /      -1-0:         1960 /     0-1-0:         2891
  -1-0-1-0:         2842 / 0-1-0-1-0:         3381

 Diagonal elements of averaged one-particle density matrix:
       2       3       4       5       6       7       8
  0.9937  0.9882  0.9862  0.9924  0.0118  0.0110  0.0167
  0.9891  0.6613  0.6576  0.6629  0.0094  0.0079  0.0118

 Orbital energies:
 -------- Doubly-occupied orbitals (highest several orbs.) -------
             1
 -1.598453D+01
 -------- Active orbitals ----------------------------------------
             2            3            4            5            6
 -1.517065D+00-9.862213D-01-8.506584D-01-7.436851D-01 3.590949D-01
             7            8
  4.131101D-01 2.185212D-01
 -------- External orbitals (lowest several orbs.) ---------------
             9           10           11           12           13
  1.470577D-01 2.013441D-01 2.204332D-01 5.360480D-01 5.951935D-01
            14           15           16           17           18
  6.509508D-01 7.925930D-01 9.817418D-01 1.034273D+00 1.255967D+00

 *** Quasi-degeneracy checking

 === Det (|Ci| > 1.0D-01 and dE < 5.0D-03)

 # of small denominators (single excitations)
 State       dEmin  dE < 5.0D-03  dE < 5.0D-04  dE < 5.0D-05  dE < 5.0D-06
 ----- ----------- ------------- ------------- ------------- -------------
     1    5.00D-03             0             0             0             0
     2    5.00D-03             0             0             0             0
     3    5.00D-03             0             0             0             0

 # of small denominators (double excitations)
 State       dEmin  dE < 5.0D-03  dE < 5.0D-04  dE < 5.0D-05  dE < 5.0D-06
 ----- ----------- ------------- ------------- ------------- -------------
     1    5.00D-03             0             0             0             0
     2    5.00D-03             0             0             0             0
     3    5.00D-03             0             0             0             0

 *** Zeroth-Order Setup (Granovsky's zeroth-order vectors)
 Zeroth-order effective Hamiltonian
  (= Sum_i e(i)*<I|a+(i)a(i)|J> ):
                   1            2            3
     1 -7.347530D+00
     2 -1.104892D-02-7.262035D+00
     3  1.760167D-03-2.948941D-03-7.118006D+00

 Zeroth-order vectors:
 State #    1
       MC st            1           2           3
       Coeff    9.920D-01   1.259D-01  -5.953D-03
 State #    2
       MC st            2           1           3
       Coeff   -9.918D-01   1.258D-01  -2.205D-02
 State #    3
       MC st            3           2           1
       Coeff    9.997D-01  -2.112D-02   8.681D-03

 *** GMC-QDPT computation

 (Integral reading:  CPU/Wall time =           0.00 /           0.00 sec.)

 One-external:
   0 -ionized terms: CPU/Wall time =           0.04 /           0.04 sec.
 (-1)-ionized terms: CPU/Wall time =           0.08 /           0.08 sec.
 (+1)-ionized terms: CPU/Wall time =           0.03 /           0.02 sec.
 (+1)-ionized terms: CPU/Wall time =           0.00 /           0.01 sec.
 (+2)-ionized terms: CPU/Wall time =           0.01 /           0.00 sec.

 Internal:
 # of macro loops for internal contribution =         1 (input)
 Loop:    1
 Dimension of internal CISD space     =         0  (after screening)
 Space construction: CPU/Wall time =           0.01 /           0.02 sec.
 Internal terms:     CPU/Wall time =           0.00 /           0.00 sec.

 Two-external:
   0 -ionized terms: CPU/Wall time =           0.06 /           0.06 sec.
 (-1)-ionized terms: CPU/Wall time =           1.00 /           1.00 sec.
 (-2)-ionized terms: CPU/Wall time =           0.17 /           0.17 sec.

 Total time:         CPU/Wall time =           1.40 /           1.40 sec.

 ***                  ***
 *** GMC-QDPT Results ***
 ***                  ***

 Diagonal elements of effective Hamiltonian:
 Heff(  1) =   -55.97566199
 Heff(  2) =   -55.84632250
 Heff(  3) =   -55.71547822

 Off-diagonal elements of effective Hamiltonian:
                   1            2
     2 -1.589684D-02
     3 -1.626176D-03-2.846003D-03

 ******** GMC-QDPT energies ********
 ----------------------------------------------------------------------------
   State                        1st order                           2nd order
 ----------------------------------------------------------------------------
     1     E(REF-CI)=      -55.8795012346   E(GMC-QDPT2)=      -55.9776017864
     2     E(REF-CI)=      -55.7360809628   E(GMC-QDPT2)=      -55.8444509215
     3     E(REF-CI)=      -55.6043010959   E(GMC-QDPT2)=      -55.7154100003
 ----------------------------------------------------------------------------

 Excitation energies (invalid if E(1)/=E(GS)):
 ----------------------------------------------------------------------------
   State                        1st order                           2nd order
 ----------------------------------------------------------------------------

     TZ Sorted GMC-PT ENERGIES:
         1      -55.9776017864
         2      -55.8444509215
         3      -55.7154100003
     2     E(REF-CI)=        3.9026664 eV   E(GMC-QDPT2)=        3.6232214 eV
     3     E(REF-CI)=        7.4885811 eV   E(GMC-QDPT2)=        7.1346056 eV
 ----------------------------------------------------------------------------

 Main characters of perturbed GMC-QDPT states:

 State #    1  Energy =     -55.977601786  S =  0.500

      Det      Coef    Occupancy (Ignoring core)
      ---      ----    --------- --------- -----
        1    0.976670  11110001110000
       36   -0.051261  11110001101000
      393    0.058882  10110101010010
      717    0.067107  11010011100001

 State #    2  Energy =     -55.844450922  S =  0.500

      Det      Coef    Occupancy (Ignoring core)
      ---      ----    --------- --------- -----
        1    0.054289  11110001110000
       36    0.981375  11110001101000
      463    0.059407  10110101001010

 State #    3  Energy =     -55.715410000  S =  0.500

      Det      Coef    Occupancy (Ignoring core)
      ---      ----    --------- --------- -----
       71   -0.979268  11110001011000
      822    0.067935  11010011001001

 <<<Max |V/de| = 2.420D-02  Thresh = 1.000D+00

 Oscillator strength (invalid if E(1)/=E(GS)):
 ----------------------------------------------------------------------------
   State                        1st order                           2nd order
 ----------------------------------------------------------------------------
     2     F(REF-CI)=        0.0013508712     F(GMC-PT2)=        0.0013061279
     3     F(REF-CI)=        0.0023342026     F(GMC-PT2)=        0.0022785057
 ----------------------------------------------------------------------------

 Dipole moment matrix elements, x, y, z, in A.U.
States    1    1       -0.2100540848        0.1405731934        0.7278406589
States    1    2        0.0217400007       -0.0223629035       -0.1172234989
States    1    3        0.0972453653        0.0332001393        0.0497637182
States    2    1        0.0217400007       -0.0223629035       -0.1172234989
States    2    2       -0.0402118025        0.1891050438        0.2849202260
States    2    3        0.1362246098        0.1681256309        0.0019898091
States    3    1        0.0972453653        0.0332001393        0.0497637182
States    3    2        0.1362246098        0.1681256309        0.0019898091
States    3    3       -0.4704190794        0.2233929334        0.2650375865

 Oscillator strength (valid only when positive): 
 ----------------------------------------------------------------------------
  States                        1st order                           2nd order
 ----------------------------------------------------------------------------
  1  1     F(REF-CI)=        0.0000000000     F(GMC-PT2)=        0.0000000000
  1  2     F(REF-CI)=       -0.0013508712     F(GMC-PT2)=       -0.0013061279
  1  3     F(REF-CI)=       -0.0023342026     F(GMC-PT2)=       -0.0022785057
  2  1     F(REF-CI)=        0.0013508712     F(GMC-PT2)=        0.0013061279
  2  2     F(REF-CI)=        0.0000000000     F(GMC-PT2)=        0.0000000000
  2  3     F(REF-CI)=       -0.0041395297     F(GMC-PT2)=       -0.0040284280
  3  1     F(REF-CI)=        0.0023342026     F(GMC-PT2)=        0.0022785057
  3  2     F(REF-CI)=        0.0041395297     F(GMC-PT2)=        0.0040284280
  3  3     F(REF-CI)=        0.0000000000     F(GMC-PT2)=        0.0000000000
 CPU     0: STEP CPU TIME=     1.92 TOTAL CPU TIME=         13.5 (      0.2 MIN)
 TOTAL WALL CLOCK TIME=         13.4 SECONDS, CPU UTILIZATION IS   100.00%

     !!! DIABATIZATION FOR REF CI STATES !!!

 *******************************************************
          $DMO GROUP FOUND IN THE INPUT.
        DIABATIZATION OF ADIABATIC STATES BEGINS.
     PROGRAMMED BY TAO ZENG (CARLETON UNIVERSITY).
               Email: toby.zeng@carleton.ca
     See T. Zeng, J. Chem. Phys. 2017, 146, 144103
 *******************************************************

 *************************************************************************
     STEP 1: TRANSFORMATION OF ADIABATIC STATES TO THE DMO REPRESENTATION
         See Atchity and Ruedenberg, J. Chem. Phys. 1999, 111, 2910
 *************************************************************************

Read in Diabatic Molecualr Orbitals:

                      1          2          3          4          5

    1  N  1  S    0.008609   0.000000   0.000000  -0.013219   0.279491
    2  N  1  S    0.442914  -0.000000   0.000000  -0.184329   0.867803
    3  N  1  S    0.276913   0.000000  -0.000000  -0.288315   0.144236
    4  N  1  X   -0.000000   0.493155  -0.024636  -0.000000  -0.000000
    5  N  1  Y    0.000000   0.024636   0.493155  -0.000000   0.000000
    6  N  1  Z    0.090197   0.000000   0.000000   0.593421   0.705309
    7  N  1  X   -0.000000   0.210628  -0.010522   0.000000   0.000000
    8  N  1  Y    0.000000   0.010522   0.210628  -0.000000  -0.000000
    9  N  1  Z   -0.004381   0.000000   0.000000   0.381592  -0.106092
   10  N  1 XX   -0.000457   0.010719  -0.000535  -0.012387   0.006153
   11  N  1 YY   -0.000457  -0.010719   0.000535  -0.012387   0.006153
   12  N  1 ZZ    0.000914  -0.000000   0.000000   0.024773  -0.012306
   13  N  1 XY    0.000000  -0.000618  -0.012377  -0.000000   0.000000
   14  N  1 XZ   -0.000000   0.026529  -0.001325  -0.000000   0.000000
   15  N  1 YZ    0.000000   0.001325   0.026529  -0.000000   0.000000
   16  H  2  S    0.194462  -0.176074   0.343485   0.112865  -0.523343
   17  H  2  S    0.003574  -0.023812   0.046452   0.024014  -0.054445
   18  H  2  X    0.018760   0.009101   0.022834   0.009336  -0.039151
   19  H  2  Y   -0.032493   0.022287  -0.020044  -0.016171   0.067811
   20  H  2  Z   -0.009251   0.008464  -0.016511   0.018769  -0.010566
   21  H  3  S    0.194462  -0.209430  -0.324227   0.112865  -0.523343
   22  H  3  S    0.003574  -0.028322  -0.043847   0.024014  -0.054445
   23  H  3  X    0.018760   0.006781  -0.023627   0.009336  -0.039151
   24  H  3  Y    0.032493  -0.024174  -0.017723   0.016171  -0.067811
   25  H  3  Z   -0.009251   0.010067   0.015585   0.018769  -0.010566
   26  H  4  S    0.194462   0.385503  -0.019258   0.112865  -0.523343
   27  H  4  S    0.003574   0.052134  -0.002604   0.024014  -0.054445
   28  H  4  X   -0.037519  -0.032295   0.001613  -0.018672   0.078302
   29  H  4  Y    0.000000   0.001067   0.021353  -0.000000   0.000000
   30  H  4  Z   -0.009251  -0.018530   0.000926   0.018769  -0.010566

                      6          7

    1  N  1  S    0.000000  -0.000000
    2  N  1  S    0.000000  -0.000000
    3  N  1  S   -0.000000   0.000000
    4  N  1  X   -0.930415  -0.002083
    5  N  1  Y   -0.002083   0.930415
    6  N  1  Z   -0.000000   0.000000
    7  N  1  X   -0.046866  -0.000105
    8  N  1  Y   -0.000105   0.046866
    9  N  1  Z   -0.000000   0.000000
   10  N  1 XX    0.001538   0.000003
   11  N  1 YY   -0.001538  -0.000003
   12  N  1 ZZ   -0.000000   0.000000
   13  N  1 XY   -0.000004   0.001776
   14  N  1 XZ    0.039985   0.000090
   15  N  1 YZ    0.000090  -0.039985
   16  H  2  S   -0.362630  -0.631354
   17  H  2  S   -0.065964  -0.114846
   18  H  2  X    0.002763  -0.037520
   19  H  2  Y    0.037435   0.040736
   20  H  2  Z    0.001882   0.003276
   21  H  3  S   -0.365454   0.629724
   22  H  3  S   -0.066477   0.114549
   23  H  3  X    0.002595   0.037532
   24  H  3  Y   -0.037617   0.040567
   25  H  3  Z    0.001896  -0.003268
   26  H  4  S    0.728084   0.001630
   27  H  4  S    0.132441   0.000297
   28  H  4  X   -0.062317  -0.000140
   29  H  4  Y    0.000055  -0.024345
   30  H  4  Z   -0.003778  -0.000008

NUMBER OF SUB ACTIVE SPACES:   1
ROTATE ACTIVE MOS TO DMOS IN EACH SUB-SPACE

SPACE  1:

OVERLAP BETWEEN ORTHONORMAL AND PRE-ORTHONORMAL REF. DMOS

             1           2           3           4           5

    1    0.9874075  -0.0151214   0.0202652  -0.0043216   0.0015631
    2   -0.0151214   1.0300402   0.0225807  -0.0239922   0.0479734
    3    0.0202652   0.0225807   0.9290590   0.0232589  -0.0338963
    4   -0.0043216  -0.0239922   0.0232589   0.9970546  -0.0059180
    5    0.0015631   0.0479734  -0.0338963  -0.0059180   1.0732537
    6    0.0028726   0.0365304   0.0235001  -0.0315359   0.0142840
    7    0.0008352  -0.0152940   0.0486375  -0.0192851  -0.0309424

             6           7

    1    0.0028726   0.0008352
    2    0.0365304  -0.0152940
    3    0.0235001   0.0486375
    4   -0.0315359  -0.0192851
    5    0.0142840  -0.0309424
    6    1.0160722   0.0147909
    7    0.0147909   1.0450956
REFERENCE DMOS AFTER ORTHONORMALIZATION:

                      1          2          3          4          5

    1  N  1  S    0.007869  -0.012314   0.009709  -0.012186   0.261446
    2  N  1  S    0.445487  -0.035003   0.024649  -0.179750   0.810058
    3  N  1  S    0.278742  -0.008580   0.006579  -0.287926   0.133087
    4  N  1  X    0.010840   0.512822  -0.016543  -0.016479  -0.010571
    5  N  1  Y   -0.010302   0.025246   0.486898   0.005400   0.039729
    6  N  1  Z    0.092519  -0.015500   0.005694   0.599864   0.661958
    7  N  1  X    0.003679   0.207330  -0.015743   0.003723  -0.008922
    8  N  1  Y   -0.004587   0.005465   0.225426  -0.004627   0.007939
    9  N  1  Z   -0.002154   0.013368  -0.014026   0.383285  -0.097808
   10  N  1 XX   -0.000368   0.009859  -0.000337  -0.012124   0.005208
   11  N  1 YY   -0.000721  -0.010981   0.001460  -0.012744   0.006215
   12  N  1 ZZ    0.001090   0.001122  -0.001123   0.024869  -0.011424
   13  N  1 XY    0.000272  -0.000252  -0.013473   0.000362  -0.000350
   14  N  1 XZ    0.000339   0.024582  -0.003119   0.001878  -0.001701
   15  N  1 YZ   -0.000602  -0.000008   0.030680  -0.001491  -0.000182
   16  H  2  S    0.189238  -0.149774   0.391543   0.075340  -0.482101
   17  H  2  S    0.002591  -0.020999   0.055670   0.017828  -0.050364
   18  H  2  X    0.018770   0.009836   0.024268   0.008259  -0.037267
   19  H  2  Y   -0.032481   0.017801  -0.021742  -0.013149   0.062404
   20  H  2  Z   -0.008744   0.009424  -0.018974   0.019558  -0.010660
   21  H  3  S    0.204530  -0.145714  -0.393345   0.117893  -0.470960
   22  H  3  S    0.004691  -0.019557  -0.053409   0.024747  -0.047342
   23  H  3  X    0.019827   0.009925  -0.029713   0.010969  -0.036819
   24  H  3  Y    0.033351  -0.017420  -0.023149   0.015753  -0.061517
   25  H  3  Z   -0.009450   0.010049   0.016059   0.018582  -0.009803
   26  H  4  S    0.203675   0.380718  -0.074341   0.144318  -0.516373
   27  H  4  S    0.004421   0.049488  -0.010063   0.029303  -0.054882
   28  H  4  X   -0.038719  -0.033895   0.008172  -0.021379   0.075544
   29  H  4  Y   -0.000481   0.000113   0.024304  -0.001045   0.000055
   30  H  4  Z   -0.009551  -0.017229   0.000913   0.018215  -0.008905

                      6          7

    1  N  1  S   -0.003959   0.006934
    2  N  1  S   -0.017813   0.018903
    3  N  1  S   -0.011412  -0.001866
    4  N  1  X   -0.934421   0.018880
    5  N  1  Y   -0.027241   0.869647
    6  N  1  Z    0.009040   0.029974
    7  N  1  X   -0.053045   0.004219
    8  N  1  Y   -0.006261   0.034674
    9  N  1  Z    0.013050   0.004842
   10  N  1 XX    0.000717   0.000084
   11  N  1 YY   -0.001630  -0.000259
   12  N  1 ZZ    0.000912   0.000176
   13  N  1 XY    0.000298   0.002314
   14  N  1 XZ    0.038622   0.000028
   15  N  1 YZ   -0.000085  -0.039719
   16  H  2  S   -0.342774  -0.632709
   17  H  2  S   -0.062553  -0.113067
   18  H  2  X    0.003084  -0.037896
   19  H  2  Y    0.034909   0.041387
   20  H  2  Z    0.002673   0.004170
   21  H  3  S   -0.344539   0.611669
   22  H  3  S   -0.063694   0.111758
   23  H  3  X    0.003155   0.036492
   24  H  3  Y   -0.035162   0.038580
   25  H  3  Z    0.001929  -0.003694
   26  H  4  S    0.715941  -0.012329
   27  H  4  S    0.130489  -0.001458
   28  H  4  X   -0.061943   0.001740
   29  H  4  Y   -0.000189  -0.024438
   30  H  4  Z   -0.002400  -0.000189

 -------------------------------------------
       MAXIMIZING MORMO OVERLAP TERM        
 -------------------------------------------
   SWEEP    VALUE       PROGRESS
     0     5.85008
     1     6.96440     1.11431459
     2     6.97622     0.01182071
     3     6.97622     0.00000030
     4     6.97622     0.00000000
     5     6.97622     0.00000000
 THE ROTATION IS DONE
FLIPPING SIGN FOR ORBITAL   7
ACTIVE ORBITALS AFTER MORMO:

                      1          2          3          4          5

    1  N  1  S    0.007032  -0.016165   0.015640  -0.012243   0.232161
    2  N  1  S    0.433342  -0.034453   0.039126  -0.186002   0.773388
    3  N  1  S    0.310015   0.016870  -0.040749  -0.279476   0.172175
    4  N  1  X    0.006059   0.507487  -0.010214  -0.023841   0.000961
    5  N  1  Y    0.000305   0.032271   0.457094   0.019377   0.026106
    6  N  1  Z    0.086060  -0.026737   0.018132   0.599192   0.656045
    7  N  1  X    0.009791   0.184864  -0.031735   0.031709  -0.031686
    8  N  1  Y   -0.018624  -0.012001   0.273960  -0.029113   0.029433
    9  N  1  Z    0.013887   0.038840  -0.040057   0.383453  -0.089443
   10  N  1 XX    0.002662   0.007745  -0.007983  -0.011962  -0.028616
   11  N  1 YY   -0.003340  -0.008241   0.008193  -0.011433   0.030606
   12  N  1 ZZ    0.000678   0.000495  -0.000209   0.023395  -0.001991
   13  N  1 XY    0.001824   0.006812  -0.019503   0.002590  -0.022525
   14  N  1 XZ   -0.001805   0.018631  -0.002169   0.000831   0.028556
   15  N  1 YZ   -0.000555   0.000657   0.024786   0.002015  -0.025010
   16  H  2  S    0.189092  -0.161862   0.363356   0.092330  -0.498649
   17  H  2  S    0.002859  -0.023689   0.091932   0.019553  -0.059499
   18  H  2  X    0.021200   0.008594   0.024249   0.010354  -0.030153
   19  H  2  Y   -0.025613   0.017570  -0.011899  -0.016263   0.058617
   20  H  2  Z   -0.013534   0.013524  -0.022989   0.017799  -0.008710
   21  H  3  S    0.189577  -0.183318  -0.340080   0.110142  -0.458438
   22  H  3  S    0.003974  -0.015682  -0.084581   0.030072  -0.056615
   23  H  3  X    0.026371  -0.007033  -0.034716   0.011926  -0.038957
   24  H  3  Y    0.020951  -0.022324  -0.007030   0.010557  -0.047466
   25  H  3  Z   -0.007175   0.013184   0.010603   0.018937  -0.017493
   26  H  4  S    0.188191   0.383489  -0.039459   0.123695  -0.503253
   27  H  4  S    0.001567   0.049341  -0.018628   0.031226  -0.059594
   28  H  4  X   -0.035545  -0.037733  -0.005013  -0.015127   0.064607
   29  H  4  Y   -0.007102  -0.011957   0.020683  -0.003578   0.011597
   30  H  4  Z   -0.004814  -0.012635  -0.001217   0.020448  -0.013031

                      6          7

    1  N  1  S   -0.042319  -0.008867
    2  N  1  S   -0.094579  -0.026346
    3  N  1  S    0.091654   0.059112
    4  N  1  X   -0.919609   0.023141
    5  N  1  Y   -0.029315   0.875401
    6  N  1  Z    0.033007   0.059325
    7  N  1  X   -0.088373   0.004166
    8  N  1  Y   -0.009489   0.023849
    9  N  1  Z    0.001965  -0.022029
   10  N  1 XX   -0.018147   0.026277
   11  N  1 YY    0.026308  -0.023602
   12  N  1 ZZ   -0.008161  -0.002675
   13  N  1 XY    0.031697   0.031549
   14  N  1 XZ    0.052723  -0.007420
   15  N  1 YZ    0.012490  -0.026546
   16  H  2  S   -0.353499  -0.601608
   17  H  2  S   -0.069960  -0.154923
   18  H  2  X    0.019875  -0.038953
   19  H  2  Y    0.041341   0.023887
   20  H  2  Z   -0.000968   0.014732
   21  H  3  S   -0.368213   0.571063
   22  H  3  S   -0.077682   0.145315
   23  H  3  X   -0.010275   0.047437
   24  H  3  Y   -0.041781   0.020615
   25  H  3  Z   -0.017875  -0.008004
   26  H  4  S    0.702894  -0.028573
   27  H  4  S    0.139040  -0.003281
   28  H  4  X   -0.065230   0.011258
   29  H  4  Y   -0.013875  -0.011867
   30  H  4  Z    0.010900  -0.012449

Actually Used Diabatic Molecualr Orbitals:

                      1          2          3          4          5

    1  N  1  S    0.007032  -0.016165   0.015640  -0.012243   0.232161
    2  N  1  S    0.433342  -0.034453   0.039126  -0.186002   0.773388
    3  N  1  S    0.310015   0.016870  -0.040749  -0.279476   0.172175
    4  N  1  X    0.006059   0.507487  -0.010214  -0.023841   0.000961
    5  N  1  Y    0.000305   0.032271   0.457094   0.019377   0.026106
    6  N  1  Z    0.086060  -0.026737   0.018132   0.599192   0.656045
    7  N  1  X    0.009791   0.184864  -0.031735   0.031709  -0.031686
    8  N  1  Y   -0.018624  -0.012001   0.273960  -0.029113   0.029433
    9  N  1  Z    0.013887   0.038840  -0.040057   0.383453  -0.089443
   10  N  1 XX    0.002662   0.007745  -0.007983  -0.011962  -0.028616
   11  N  1 YY   -0.003340  -0.008241   0.008193  -0.011433   0.030606
   12  N  1 ZZ    0.000678   0.000495  -0.000209   0.023395  -0.001991
   13  N  1 XY    0.001824   0.006812  -0.019503   0.002590  -0.022525
   14  N  1 XZ   -0.001805   0.018631  -0.002169   0.000831   0.028556
   15  N  1 YZ   -0.000555   0.000657   0.024786   0.002015  -0.025010
   16  H  2  S    0.189092  -0.161862   0.363356   0.092330  -0.498649
   17  H  2  S    0.002859  -0.023689   0.091932   0.019553  -0.059499
[...]
      823    0.033243   -0.033243  20+2002
      123   -0.031135    0.031135  +-2200+
      262    0.030923    0.030923  2+02-0+
      285    0.030066   -0.030066  02+2200
      157   -0.027524    0.027524  220+-0+
      142    0.026846    0.026846  22+0200
      122    0.025900    0.025900  +2-200+
      472    0.025462    0.025462  2+020-+
      248    0.025070   -0.025070  2+02200
       16    0.024300   -0.024300  222000+
      249    0.023164   -0.023164  20+2200
      859    0.021956   -0.021956  02+2002
      356    0.021895    0.021895  22+0020
      471    0.021280    0.021280  2++-0-+
      857    0.020994    0.020994  +202002
      716    0.020929    0.020929  22+0002
      143   -0.020865   -0.020865  220+200
       88   -0.020324    0.020324  202200+
       55    0.020260    0.020260  220-+0+
      283   -0.020134   -0.020134  +202200

 ---------------------------------------
    -DIABATIC STATES IN PROTOTYPES-     
 ---------------------------------------

     STATE:    1
 Group Ref#    Coefficients
     1    1    0.976623
     2    2   -0.000109
     3    3    0.003152

WEIGHT OF LISTED PROTOTYPES:   95.38%

     STATE:    2
 Group Ref#    Coefficients
     1    1   -0.000109
     2    2    0.973193
     3    3   -0.002130

WEIGHT OF LISTED PROTOTYPES:   94.71%

     STATE:    3
 Group Ref#    Coefficients
     1    1    0.003152
     2    2   -0.002130
     3    3    0.976068

WEIGHT OF LISTED PROTOTYPES:   95.27%

 --------------------------------------------------
 IN DIRECT MAX. DIABATIZATION FOR GMC-QDPT

 DIRECT MAXIMIZATION (DM) WITHOUT TRUNCATING ADIABATS
 EXPANSIONS INTO THE REFERENCE CONFIGURATION SPACE
 --------------------------------------------------

 -------------------------------------------
 - DM DIABT PT HAMILTONIAN MATRIX ELEMENTS -
 -------------------------------------------
                                            
 --- DIABATIC ENERGIES (DIAGONAL ELEMENT) ---       HARTREE            EV
 STATE #  1'S GMC-PT-LEVEL DIABATIC ENERGY=     -55.968310975       0.000000000
 STATE #  2'S GMC-PT-LEVEL DIABATIC ENERGY=     -55.725767985       6.599930925
 STATE #  3'S GMC-PT-LEVEL DIABATIC ENERGY=     -55.843383748       3.399443020

 --- DIABATIC COUPLINGS (OFF DIAGONAL ELEMENTS)---  HATREE            EV
 STATE #  1 &  2'S GMC-PT-LEVEL COUPLING  =       0.030405612       0.827378846
 STATE #  1 &  3'S GMC-PT-LEVEL COUPLING  =      -0.023205835      -0.631462934
 STATE #  2 &  3'S GMC-PT-LEVEL COUPLING  =       0.031832350       0.866202355

 ---------------------------------------
     - ROTATION TO DIABATIC STATES -    
 ---------------------------------------
 ROWS=ADIABATIC, COLUMNS=DIABATIC STATES

             1           2           3

    1   -0.9691066   0.1424569  -0.2013415
    2    0.2271636   0.1975721  -0.9536047
    3   -0.0960681  -0.9698821  -0.2238294

 ---------------------------------------
          - DIABATIC STATES -           
 ---------------------------------------

 State #    1  Energy =     -55.968310975

      Det      Coef        Coefp    Occupancy (Ignoring core)
      ---      ----        ----    --------- --------- -----
        1    0.957958   -0.957958  222+000
       17    0.118046    0.118046  22-+00+
      701   -0.086460   -0.086460  22++00-
      717   -0.075724   -0.075724  220+002
        4    0.066374   -0.066374  2-2++00
      393   -0.065376   -0.065376  202+020
      176   -0.064599    0.064599  2+2+-00
        3   -0.059189   -0.059189  22-++00
      141    0.056719    0.056719  22++-00
        6   -0.045743    0.045743  22200+0
      402    0.041497   -0.041497  2+-+0-+
       16   -0.040477    0.040477  222000+
      708    0.038700   -0.038700  2-++0+-
      215   -0.036124   -0.036124  022+200
        7    0.035149    0.035149  22-+0+0
      227   -0.034053   -0.034053  +2-+-0+
      705   -0.033706   -0.033706  -2+++0-
      390    0.033151   -0.033151  -+2++-0
      351   -0.033143   -0.033143  22++0-0
      218    0.032897   -0.032897  +-2+-+0
       51   -0.031586    0.031586  22+-00+
      212    0.029095    0.029095  +220200
      122    0.028397    0.028397  +2-200+
       76    0.025846    0.025846  2+2-0+0
      773    0.024833   -0.024833  +2-++0-
        2    0.024646   -0.024646  2220+00
      702    0.023984    0.023984  22+0+0-
      159    0.023643   -0.023643  -2++-0+
      179   -0.023637   -0.023637  202+200
      113   -0.023219    0.023219  +-220+0
      192    0.022702   -0.022702  2+-+-0+
      387   -0.022235    0.022235  2+20+-0
      424   -0.022179   -0.022179  +-2++-0
     1051   -0.021969   -0.021969  2+++0--
      704    0.021607   -0.021607  2-+++0-
      184   -0.021351   -0.021351  -+2+-+0
      143   -0.020888   -0.020888  220+200

 State #    2  Energy =     -55.725767985

      Det      Coef        Coefp    Occupancy (Ignoring core)
      ---      ----        ----    --------- --------- -----
       71   -0.960295    0.960295  2+22000
      806   -0.085755   -0.085755  2++200-
      822    0.078934   -0.078934  2+02002
       87    0.073515   -0.073515  2+-200+
      246    0.060521    0.060521  2++2-00
       73   -0.059990    0.059990  2+-2+00
       78   -0.050289    0.050289  20220+0
      736    0.048091   -0.048091  2+2+00-
       36    0.046123    0.046123  22+2000
      813    0.045137   -0.045137  20+20+-
       86   -0.044801   -0.044801  2+2-00+
      386    0.043048   -0.043048  2+2+0-0
      106   -0.042035   -0.042035  +222000
      111    0.040217   -0.040217  +22-0+0
      122    0.039557    0.039557  +2-200+
       77    0.039107   -0.039107  2+-20+0
      456   -0.038645   -0.038645  2++20-0
       74   -0.038536    0.038536  2022+00
      320    0.036548    0.036548  0+22200
      332   -0.036350    0.036350  ++-2-0+
      810   -0.035784   -0.035784  -++2+0-
       76   -0.033860   -0.033860  2+2-0+0
       38   -0.032043    0.032043  2202+00
      323   -0.031185    0.031185  +022-+0
      317    0.030486   -0.030486  ++2-200
      180   -0.030154    0.030154  -+2+200
       99   -0.029197    0.029197  20-20++
      177    0.028857   -0.028857  2+20200
      807   -0.027824    0.027824  2++-+0-
      192   -0.027329    0.027329  2+-+-0+
        6    0.027329   -0.027329  22200+0
       51    0.026367   -0.026367  22+-00+
      264    0.025404   -0.025404  -++2-0+
      878    0.024925    0.024925  ++-2+0-
      248    0.024527   -0.024527  2+02200
      183   -0.023095    0.023095  202+-+0
      391    0.023023   -0.023023  2+20020
       90    0.022865    0.022865  2+--+0+
      316    0.022813    0.022813  ++22-00
      841   -0.022216    0.022216  +2+200-
      421   -0.020952   -0.020952  +22+0-0
      109   -0.020218    0.020218  +-22+00

 State #    3  Energy =     -55.843383748

      Det      Coef        Coefp    Occupancy (Ignoring core)
      ---      ----        ----    --------- --------- -----
       36   -0.960177   -0.960177  22+2000
       39   -0.097566   -0.097566  2-+2+00
      246    0.077549    0.077549  2++2-00
       41   -0.074188    0.074188  22+-0+0
      351    0.065604    0.065604  22++0-0
      463    0.063354   -0.063354  20+2020
       38    0.062490   -0.062490  2202+00
       52   -0.062366    0.062366  220200+
       51   -0.047566    0.047566  22+-00+
      701    0.046880    0.046880  22++00-
       71   -0.046422    0.046422  2+22000
      106    0.044830    0.044830  +222000
      472   -0.044644   -0.044644  2+020-+
      285    0.035512   -0.035512  02+2200
      297    0.034870   -0.034870  +202-0+
      460   -0.033533   -0.033533  -++2+-0
      288   -0.032933   -0.032933  +-+2-+0
      121   -0.031840    0.031840  +22-00+
      123    0.030693   -0.030693  +-2200+
      145   -0.030276   -0.030276  -2++200
      282    0.029824    0.029824  +2+-200
      157    0.029334   -0.029334  220+-0+
       64    0.029035   -0.029035  2-020++
      142    0.028901    0.028901  22+0200
       42   -0.028589    0.028589  22020+0
       53    0.027253    0.027253  2-+200+
      806   -0.026246   -0.026246  2++200-
       55   -0.025383   -0.025383  220-+0+
       43   -0.023963   -0.023963  2-+20+0
       16   -0.023749    0.023749  222000+
      456    0.023250    0.023250  2++20-0
      249    0.023158   -0.023158  20+2200
      716    0.023097    0.023097  22+0002
      457   -0.023088    0.023088  2++-+-0
      148   -0.022632   -0.022632  2-++-+0
      494    0.022283   -0.022283  +-+2+-0
      262   -0.021986   -0.021986  2+02-0+
      843   -0.021963   -0.021963  +202+0-
      367    0.021535   -0.021535  220+0-+
      859    0.020770   -0.020770  02+2002
      254    0.020492   -0.020492  -++2-+0
       73    0.020017   -0.020017  2+-2+00

 ---------------------------------------
      - DIABATIC STATES IN CMO -        
 ---------------------------------------

 State #    1  Energy =     -55.968310975

      Det      Coef        Coefp    Occupancy (Ignoring core)
      ---      ----        ----    --------- --------- -----
        1    0.934128   -0.934128  222+000
       36    0.271276    0.271276  22+2000
       71   -0.097745    0.097745  2+22000
      717   -0.068414   -0.068414  220+002
      393   -0.057926   -0.057926  202+020
      143   -0.038417   -0.038417  220+200
        8   -0.038396    0.038396  2-2+0+0
      708   -0.033300    0.033300  2-++0+-
      753   -0.031286   -0.031286  202+002
      215   -0.030218   -0.030218  022+200
      106   -0.029497   -0.029497  +222000
       17   -0.029391   -0.029391  22-+00+
        3    0.028618    0.028618  22-++00
      703    0.028193    0.028193  220++0-
      402   -0.026271    0.026271  2+-+0-+
       16    0.026242   -0.026242  222000+
      716   -0.025266   -0.025266  22+0002
      122   -0.024445   -0.024445  +2-200+
      719    0.024343    0.024343  -2++002
      704   -0.024034    0.024034  2-+++0-
      705    0.023697    0.023697  -2+++0-
      157   -0.022803    0.022803  220+-0+
      213    0.022627   -0.022627  +2-+200
       76    0.022478    0.022478  2+2-0+0
       51    0.022273   -0.022273  22+-00+
      787   -0.021771    0.021771  +2-+002
      113   -0.020721    0.020721  +-220+0
      401    0.020217    0.020217  2+200-+
        4   -0.020180    0.020180  2-2++00

 State #    2  Energy =     -55.725767985

      Det      Coef        Coefp    Occupancy (Ignoring core)
      ---      ----        ----    --------- --------- -----
       71   -0.952315    0.952315  2+22000
       36    0.173118    0.173118  22+2000
        1   -0.150232    0.150232  222+000
      822    0.067167   -0.067167  2+02002
      248    0.039609   -0.039609  2+02200
      111    0.036072   -0.036072  +22-0+0
      122   -0.034933   -0.034933  +2-200+
      320    0.030698    0.030698  0+22200
      123   -0.028381    0.028381  +-2200+
      751    0.026886   -0.026886  2+20002
      813   -0.026060    0.026060  20+20+-
      808   -0.025896    0.025896  2+02+0-
       18    0.025106   -0.025106  2-2+00+
      262    0.024607    0.024607  2+02-0+
      391    0.023807   -0.023807  2+20020
       38   -0.023415    0.023415  2202+00
      809   -0.023376    0.023376  20+2+0-
      177    0.023338   -0.023338  2+20200
      824    0.023125    0.023125  -++2002
      892   -0.023012   -0.023012  ++-2002
      107    0.022906   -0.022906  +22-+00
      318    0.022666    0.022666  ++-2200
      894    0.022171    0.022171  0+22002
       78   -0.021784    0.021784  20220+0
      421   -0.021575   -0.021575  +22+0-0
       76    0.021216    0.021216  2+2-0+0
      463   -0.020974    0.020974  20+2020
      192    0.020895   -0.020895  2+-+-0+
       51   -0.020750    0.020750  22+-00+
      250   -0.020006   -0.020006  -++2200

 State #    3  Energy =     -55.843383748

      Det      Coef        Coefp    Occupancy (Ignoring core)
      ---      ----        ----    --------- --------- -----
       36   -0.928632   -0.928632  22+2000
        1    0.248328   -0.248328  222+000
       71   -0.206603    0.206603  2+22000
      463    0.053703   -0.053703  20+2020
      823    0.033243   -0.033243  20+2002
      123   -0.031135    0.031135  +-2200+
      262    0.030923    0.030923  2+02-0+
      285    0.030066   -0.030066  02+2200
      157   -0.027524    0.027524  220+-0+
      142    0.026846    0.026846  22+0200
      122    0.025900    0.025900  +2-200+
      472    0.025461    0.025461  2+020-+
      248    0.025071   -0.025071  2+02200
       16    0.024300   -0.024300  222000+
      249    0.023164   -0.023164  20+2200
      859    0.021956   -0.021956  02+2002
      356    0.021895    0.021895  22+0020
      471    0.021280    0.021280  2++-0-+
      857    0.020994    0.020994  +202002
      716    0.020929    0.020929  22+0002
      143   -0.020865   -0.020865  220+200
       88   -0.020324    0.020324  202200+
       55    0.020260    0.020260  220-+0+
      283   -0.020134   -0.020134  +202200

 ---------------------------------------
    -DIABATIC STATES IN PROTOTYPES-     
 ---------------------------------------

     STATE:    1
 Group Ref#    Coefficients
     1    1    0.976623
     2    2   -0.000108
     3    3    0.003151

WEIGHT OF LISTED PROTOTYPES:   95.38%

     STATE:    2
 Group Ref#    Coefficients
     1    1   -0.000109
     2    2    0.973193
     3    3   -0.002133

WEIGHT OF LISTED PROTOTYPES:   94.71%

     STATE:    3
 Group Ref#    Coefficients
     1    1    0.003153
     2    2   -0.002126
     3    3    0.976068

WEIGHT OF LISTED PROTOTYPES:   95.27%

     DIRECT MAX. DIABATIZATION FINISHED    
 CPU     0: STEP CPU TIME=     0.24 TOTAL CPU TIME=         13.7 (      0.2 MIN)
 TOTAL WALL CLOCK TIME=         13.7 SECONDS, CPU UTILIZATION IS    99.93%

DIABATS FOR SPIN-ORBIT CALCULATION ARE READY

TRANSITION DIPOLES BETWEEN ADIABATS (in A.U.):

STATE PAIR      X         Y         Z
    1    1 -0.210054  0.140573  0.727841
    2    1  0.021740 -0.022363 -0.117223
    2    2 -0.040212  0.189105  0.284920
    3    1  0.097245  0.033200  0.049764
    3    2  0.136225  0.168126  0.001990
    3    3 -0.470419  0.223393  0.265038


TRANSITION DIPOLES BETWEEN DIABATS (in A.U.):

STATE PAIR      X         Y         Z
    1    1 -0.201103  0.152532  0.761505
    2    1  0.037377  0.003971  0.001268
    2    2 -0.526197  0.145509  0.254093
    3    1  0.005234 -0.013679 -0.005137
    3    2  0.043519  0.166250  0.013451
    3    3  0.006616  0.255031  0.262200

TRANSITION DIPOLES BETWEEN DIRECT MAX. DIABATS (in A.U.):

STATE PAIR      X         Y         Z
    1    1 -0.201103  0.152532  0.761505
    2    1  0.037377  0.003971  0.001267
    2    2 -0.526198  0.145508  0.254093
    3    1  0.005234 -0.013679 -0.005136
    3    2  0.043517  0.166249  0.013451
    3    3  0.006616  0.255032  0.262200
 No $TRANST Group Found.
 Quit without doing spin-orbit coupling
 ..... DONE WITH MP2 ENERGY .....
 CPU     0: STEP CPU TIME=     0.01 TOTAL CPU TIME=         13.7 (      0.2 MIN)
 TOTAL WALL CLOCK TIME=         13.7 SECONDS, CPU UTILIZATION IS    99.93%
            100000000  WORDS OF DYNAMIC MEMORY USED
 EXECUTION OF GAMESS TERMINATED NORMALLY Wed Nov 16 19:44:10 2022
 DDI: 715512 bytes (0.7 MB / 0 MWords) used by master data server.

 ----------------------------------------
 CPU timing information for all processes
 ========================================
 0: 13.352 + 0.351 = 13.704
 ----------------------------------------
Note: The following floating-point exceptions are signalling: IEEE_DENORMAL
 ddikick.x: exited gracefully.
unset echo
----- accounting info -----
Files used on the master node io002 were:
-rw-r--r-- 1 bsonghao nooijen   20709 Nov 16 19:43 /scratch/bsonghao/nh3_diabatization_2d_at_mode_7_8_dist0.3_-0.4.F05
-rw-r--r-- 1 bsonghao nooijen  363520 Nov 16 19:44 /scratch/bsonghao/nh3_diabatization_2d_at_mode_7_8_dist0.3_-0.4.F09
-rw-r--r-- 1 bsonghao nooijen 1995920 Nov 16 19:44 /scratch/bsonghao/nh3_diabatization_2d_at_mode_7_8_dist0.3_-0.4.F10
-rw-r--r-- 1 bsonghao nooijen  131264 Nov 16 19:44 /scratch/bsonghao/nh3_diabatization_2d_at_mode_7_8_dist0.3_-0.4.F13
-rw-r--r-- 1 bsonghao nooijen  180312 Nov 16 19:44 /scratch/bsonghao/nh3_diabatization_2d_at_mode_7_8_dist0.3_-0.4.F15
-rw-r--r-- 1 bsonghao nooijen       0 Nov 16 19:43 /scratch/bsonghao/nh3_diabatization_2d_at_mode_7_8_dist0.3_-0.4.F16
-rw-r--r-- 1 bsonghao nooijen    9808 Nov 16 19:44 /scratch/bsonghao/nh3_diabatization_2d_at_mode_7_8_dist0.3_-0.4.F70
-rw-r--r-- 1 bsonghao nooijen    9808 Nov 16 19:44 /scratch/bsonghao/nh3_diabatization_2d_at_mode_7_8_dist0.3_-0.4.F71
-rw-r--r-- 1 bsonghao nooijen   19608 Nov 16 19:44 /scratch/bsonghao/nh3_diabatization_2d_at_mode_7_8_dist0.3_-0.4.F72
-rw-r--r-- 1 bsonghao nooijen   19608 Nov 16 19:44 /scratch/bsonghao/nh3_diabatization_2d_at_mode_7_8_dist0.3_-0.4.F73
-rw-r--r-- 1 bsonghao nooijen 1920824 Nov 16 19:44 /scratch/bsonghao/nh3_diabatization_2d_at_mode_7_8_dist0.3_-0.4.F74
-rw-r--r-- 1 bsonghao nooijen       0 Nov 16 19:43 /scratch/bsonghao/nh3_diabatization_2d_at_mode_7_8_dist0.3_-0.4.F75
-rw-r--r-- 1 bsonghao nooijen   58848 Nov 16 19:44 /scratch/bsonghao/nh3_diabatization_2d_at_mode_7_8_dist0.3_-0.4.F76
-rw-r--r-- 1 bsonghao nooijen       0 Nov 16 19:43 /scratch/bsonghao/nh3_diabatization_2d_at_mode_7_8_dist0.3_-0.4.F77
-rw-r--r-- 1 bsonghao nooijen    1864 Nov 16 19:44 /scratch/bsonghao/nh3_diabatization_2d_at_mode_7_8_dist0.3_-0.4.F78
-rw-r--r-- 1 bsonghao nooijen   39208 Nov 16 19:44 /scratch/bsonghao/nh3_diabatization_2d_at_mode_7_8_dist0.3_-0.4.F79
-rw-r--r-- 1 bsonghao nooijen     104 Nov 16 19:44 /scratch/bsonghao/nh3_diabatization_2d_at_mode_7_8_dist0.3_-0.4.F80
-rw-r--r-- 1 bsonghao nooijen   13472 Nov 16 19:44 /scratch/bsonghao/nh3_diabatization_2d_at_mode_7_8_dist0.3_-0.4.F81
-rw-r--r-- 1 bsonghao nooijen      16 Nov 16 19:44 /scratch/bsonghao/nh3_diabatization_2d_at_mode_7_8_dist0.3_-0.4.F82
-rw-r--r-- 1 bsonghao nooijen   19216 Nov 16 19:44 /scratch/bsonghao/nh3_diabatization_2d_at_mode_7_8_dist0.3_-0.4.F83
-rw-r--r-- 1 bsonghao nooijen   29712 Nov 16 19:44 /scratch/bsonghao/nh3_diabatization_2d_at_mode_7_8_dist0.3_-0.4.F84
-rw-r--r-- 1 bsonghao nooijen  401576 Nov 16 19:44 /scratch/bsonghao/nh3_diabatization_2d_at_mode_7_8_dist0.3_-0.4.F85
-rw-r--r-- 1 bsonghao nooijen  903672 Nov 16 19:44 /scratch/bsonghao/nh3_diabatization_2d_at_mode_7_8_dist0.3_-0.4.F86
-rw-r--r-- 1 bsonghao nooijen     656 Nov 16 19:44 /scratch/bsonghao/nh3_diabatization_2d_at_mode_7_8_dist0.3_-0.4.F87
-rw-r--r-- 1 bsonghao nooijen   34576 Nov 16 19:44 /scratch/bsonghao/nh3_diabatization_2d_at_mode_7_8_dist0.3_-0.4.F88
-rw-r--r-- 1 bsonghao nooijen     240 Nov 16 19:44 /scratch/bsonghao/nh3_diabatization_2d_at_mode_7_8_dist0.3_-0.4.F89
-rw-r--r-- 1 bsonghao nooijen       0 Nov 16 19:43 /scratch/bsonghao/nh3_diabatization_2d_at_mode_7_8_dist0.3_-0.4.F90
-rw-r--r-- 1 bsonghao nooijen   13760 Nov 16 19:44 /scratch/bsonghao/nh3_diabatization_2d_at_mode_7_8_dist0.3_-0.4.F91
-rw-r--r-- 1 bsonghao nooijen   22776 Nov 16 19:44 /scratch/bsonghao/nh3_diabatization_2d_at_mode_7_8_dist0.3_-0.4.F92
-rw-r--r-- 1 bsonghao nooijen   23168 Nov 16 19:44 /scratch/bsonghao/nh3_diabatization_2d_at_mode_7_8_dist0.3_-0.4.F93
-rw-r--r-- 1 bsonghao nooijen   22776 Nov 16 19:44 /scratch/bsonghao/nh3_diabatization_2d_at_mode_7_8_dist0.3_-0.4.F94
-rw-r--r-- 1 bsonghao nooijen   13760 Nov 16 19:44 /scratch/bsonghao/nh3_diabatization_2d_at_mode_7_8_dist0.3_-0.4.F95
-rw-r--r-- 1 bsonghao nooijen   29440 Nov 16 19:44 /scratch/bsonghao/nh3_diabatization_2d_at_mode_7_8_dist0.3_-0.4.F96
-rw-r--r-- 1 bsonghao nooijen    1184 Nov 16 19:44 /scratch/bsonghao/nh3_diabatization_2d_at_mode_7_8_dist0.3_-0.4.F97
-rw-r--r-- 1 bsonghao nooijen    9808 Nov 16 19:44 /scratch/bsonghao/nh3_diabatization_2d_at_mode_7_8_dist0.3_-0.4.F98
-rw-r--r-- 1 bsonghao nooijen   30264 Nov 16 19:44 /scratch/bsonghao/nh3_diabatization_2d_at_mode_7_8_dist0.3_-0.4.F99
ls: No match.
ls: No match.
ls: No match.
Wed 16 Nov 2022 07:44:13 PM EST
0.304u 0.027s 0:17.07 1.8%	0+0k 48+224io 0pf+0w
