----- GAMESS execution script 'rungms' -----
This job is running on host io002
under operating system Linux at Wed 16 Nov 2022 07:20:44 PM EST
Available scratch disk space (Kbyte units) at beginning of the job is
Filesystem       1K-blocks       Used   Available Use% Mounted on
/dev/sdc1      15378471580 3278917120 11318349060  23% /scratch
GAMESS temporary binary files will be written to /scratch/bsonghao
GAMESS supplementary output files will be written to /home/bsonghao/.gamess_ascii_files/267638
Copying input file nh3_diabatization_2d_at_mode_7_8_dist0.0_-0.6.inp to your run's scratch directory...
cp nh3_diabatization_2d_at_mode_7_8_dist0.0_-0.6.inp /scratch/bsonghao/nh3_diabatization_2d_at_mode_7_8_dist0.0_-0.6.F05
unset echo
/home/bjb2chen/gamess/ddikick.x /home/bjb2chen/gamess/gamess.00.x nh3_diabatization_2d_at_mode_7_8_dist0.0_-0.6 -ddi 1 1 io002 -scr /scratch/bsonghao

 Distributed Data Interface kickoff program.
 Initiating 1 compute processes on 1 nodes to run the following command:
 /home/bjb2chen/gamess/gamess.00.x nh3_diabatization_2d_at_mode_7_8_dist0.0_-0.6 

          ******************************************************
          *         GAMESS VERSION = 02 AUG 2018 (R2)         *
          *             FROM IOWA STATE UNIVERSITY             *
          * M.W.SCHMIDT, K.K.BALDRIDGE, J.A.BOATZ, S.T.ELBERT, *
          *   M.S.GORDON, J.H.JENSEN, S.KOSEKI, N.MATSUNAGA,   *
          *          K.A.NGUYEN, S.J.SU, T.L.WINDUS,           *
          *       TOGETHER WITH M.DUPUIS, J.A.MONTGOMERY       *
          *         J.COMPUT.CHEM.  14, 1347-1363(1993)        *
          **************** 64 BIT LINUX VERSION ****************

  SINCE 1993, STUDENTS AND POSTDOCS WORKING AT IOWA STATE UNIVERSITY
  AND ALSO IN THEIR VARIOUS JOBS AFTER LEAVING ISU HAVE MADE IMPORTANT
  CONTRIBUTIONS TO THE CODE:
     IVANA ADAMOVIC, CHRISTINE AIKENS, YURI ALEXEEV, POOJA ARORA,
     ANDREY ASADCHEV, ROB BELL, PRADIPTA BANDYOPADHYAY, JONATHAN BENTZ,
     BRETT BODE, KURT BRORSEN, CALEB CARLIN, GALINA CHABAN, WEI CHEN,
     CHEOL HO CHOI, PAUL DAY, ALBERT DEFUSCO, NUWAN DESILVA, TIM DUDLEY,
     DMITRI FEDOROV, ALEX FINDLATER, GRAHAM FLETCHER, MARK FREITAG,
     KURT GLAESEMANN, ANASTASIA GUININA,
     DAN KEMP, GRANT MERRILL, NORIYUKI MINEZAWA, JONATHAN MULLIN,
     TAKESHI NAGATA, SEAN NEDD, HEATHER NETZLOFF, BOSILJKA NJEGIC, RYAN OLSON,
     MIKE PAK, BUU PHAM,
     SPENCER PRUITT, LUKE ROSKOP, JIM SHOEMAKER, LYUDMILA SLIPCHENKO,
     TONY SMITH, SAROM SOK LEANG, JIE SONG, TETSUYA TAKETSUGU, SIMON WEBB,
     PENG XU, SOOHAENG YOO, FEDERICO ZAHARIEV

  ADDITIONAL CODE HAS BEEN PROVIDED BY COLLABORATORS IN OTHER GROUPS:
     IOWA STATE UNIVERSITY:
          JOE IVANIC, AARON WEST, LAIMUTIS BYTAUTAS, KLAUS RUEDENBERG
     UNIVERSITY OF TOKYO: KIMIHIKO HIRAO, TAKAHITO NAKAJIMA,
          TAKAO TSUNEDA, MUNEAKI KAMIYA, SUSUMU YANAGISAWA,
          KIYOSHI YAGI, MAHITO CHIBA, SEIKEN TOKURA, NAOAKI KAWAKAMI
     UNIVERSITY OF AARHUS: FRANK JENSEN
     UNIVERSITY OF IOWA: VISVALDAS KAIRYS, HUI LI
     NATIONAL INST. OF STANDARDS AND TECHNOLOGY: WALT STEVENS, DAVID GARMER
     UNIVERSITY OF PISA: BENEDETTA MENNUCCI, JACOPO TOMASI
     UNIVERSITY OF MEMPHIS: HENRY KURTZ, PRAKASHAN KORAMBATH
     UNIVERSITY OF ALBERTA: TOBY ZENG, MARIUSZ KLOBUKOWSKI
     UNIVERSITY OF NEW ENGLAND: MARK SPACKMAN
     MIE UNIVERSITY: HIROAKI UMEDA
     NAT. INST. OF ADVANCED INDUSTRIAL SCIENCE AND TECHNOLOGY: KAZUO KITAURA
     MICHIGAN STATE UNIVERSITY:
          KAROL KOWALSKI, MARTA WLOCH, JEFFREY GOUR, JESSE LUTZ,
          WEI LI, JUN SHEN, J. EMILIANO DEUSTUA, PIOTR PIECUCH
     UNIVERSITY OF MINNESOTA:
          YINAN SHU
     UNIVERSITY OF SILESIA: MONIKA MUSIAL, STANISLAW KUCHARSKI
     FACULTES UNIVERSITAIRES NOTRE-DAME DE LA PAIX:
          OLIVIER QUINET, BENOIT CHAMPAGNE
     UNIVERSITY OF CALIFORNIA - SANTA BARBARA: BERNARD KIRTMAN
     INSTITUTE FOR MOLECULAR SCIENCE:
          KAZUYA ISHIMURA, MICHIO KATOUDA, AND SHIGERU NAGASE
     UNIVERSITY OF NOTRE DAME: ANNA POMOGAEVA, DAN CHIPMAN
     KYUSHU UNIVERSITY:
          HARUYUKI NAKANO,
          FENG LONG GU, JACEK KORCHOWIEC, MARCIN MAKOWSKI, AND YURIKO AOKI,
          HIROTOSHI MORI AND EISAKU MIYOSHI
     PENNSYLVANIA STATE UNIVERSITY:
          TZVETELIN IORDANOV, CHET SWALINA, JONATHAN SKONE,
          SHARON HAMMES-SCHIFFER
     WASEDA UNIVERSITY:
          MASATO KOBAYASHI, TOMOKO AKAMA, TSUGUKI TOUMA,
          TAKESHI YOSHIKAWA, YASUHIRO IKABATA, JUNJI SEINO,
          YUYA NAKAJIMA, HIROMI NAKAI
     NANJING UNIVERSITY: SHUHUA LI
     UNIVERSITY OF NEBRASKA:
          PEIFENG SU, DEJUN SI, NANDUN THELLAMUREGE, YALI WANG, HUI LI
     UNIVERSITY OF ZURICH: ROBERTO PEVERATI, KIM BALDRIDGE
     N. COPERNICUS UNIVERSITY AND JACKSON STATE UNIVERSITY:
          MARIA BARYSZ
     UNIVERSITY OF COPENHAGEN: Jimmy Kromann, CASPER STEINMANN
     TOKYO INSTITUTE OF TECHNOLOGY: HIROYA NAKATA
     NAGOYA UNIVERSITY: YOSHIO NISHIMOTO, STEPHAN IRLE
     MOSCOW STATE UNIVERSITY: VLADIMIR MIRONOV

 EXECUTION OF GAMESS BEGUN Wed Nov 16 19:20:44 2022

            ECHO OF THE FIRST FEW INPUT CARDS -
 INPUT CARD> $system kdiag=3 mwords=100 memddi=1000 parall=.t. $end                         
 INPUT CARD> $contrl runtyp=energy ispher=1 $end                                            
 INPUT CARD> $contrl icut=9 itol=20 inttyp=rysquad qmttol=1.0d-05 nosym=1 $end              
 INPUT CARD> $scf    npunch=2 conv=1.0d-06 dirscf=.t.      $end                             
 INPUT CARD> $contrl scftyp=mcscf  mult=2 maxit=200 icharg=1 mplevl=2 $end                  
 INPUT CARD> $guess  guess=moread norb=29 purify=.t. $end                                   
 INPUT CARD> $basis  gbasis=ccd $end                                                        
 INPUT CARD> $mcscf  cistep=gmcci fullnr=.t. finci=mos                                      
 INPUT CARD>         acurcy=1.d-6 maxit=100 $end                                            
 INPUT CARD> $trans  dirtrf=.t. $end                                                        
 INPUT CARD> $mrmp   mrpt=gmcpt rdvecs=.f. $end                                             
 INPUT CARD> $gmcpt  nmofzc=0 nmodoc=1 nmoact=7 nelact=7 stsym(1)=A                         
 INPUT CARD>         reftyp=ormas nspace=1 mstart(1)=2 mine(1)=7 maxe(1)=7                  
 INPUT CARD>         kstate(1)=1,1,1                                                        
 INPUT CARD>         wstate(1)=1,1,1                                                        
 INPUT CARD>         iwgt=0 thrwgt=-1.0 krot=.f. kszdoe=.f. knospn=.f.                      
 INPUT CARD>         thrde=-1.0 edshft=0.02 $end                                            
 INPUT CARD> $data                                                                          
 INPUT CARD> NH3+ 3 states calculation at NH3 structure.                                    
 INPUT CARD> c1                                                                             
 INPUT CARD>N 7.0 0.03737350800000001 0.0 -0.1693803602                                     
 INPUT CARD>H 1.0 -0.77080636 0.5766937738 0.3356508501                                     
 INPUT CARD>H 1.0 -0.770806348 -0.5766937798 0.33565086210000006                            
 INPUT CARD>H 1.0 1.022297792 -1.2000000000000002e-08 0.0980740101                          
 INPUT CARD>$end                                                                            
 INPUT CARD>--- OPTIMIZED RHF      MO-S --- GENERATED AT Mon Nov 14 16:47:08 2022           
 INPUT CARD>E=      -56.3825050291, E(NUC)=   11.8429239490                                 
 INPUT CARD> $VEC                                                                           
 INPUT CARD> 1  1-1.00134066E+00-2.25158504E-03 3.44925845E-03 0.00000000E+00 0.00000000E+00
 INPUT CARD> 1  2-2.13170927E-03 0.00000000E+00 0.00000000E+00 6.57129898E-04-6.87950443E-05
 INPUT CARD> 1  3-6.87950443E-05 1.37590089E-04 0.00000000E+00 0.00000000E+00 0.00000000E+00
 INPUT CARD> 1  4 3.25502815E-04-4.84772356E-04 3.62525460E-04-6.27912517E-04-3.45956485E-04
 INPUT CARD> 1  5 3.25502815E-04-4.84772356E-04 3.62525460E-04 6.27912517E-04-3.45956485E-04
 INPUT CARD> 1  6 3.25502815E-04-4.84772356E-04-7.25050921E-04 0.00000000E+00-3.45956485E-04
 INPUT CARD> 2  1 1.31286642E-02-4.05911371E-01-2.82090992E-01 0.00000000E+00 0.00000000E+00
 INPUT CARD> 2  2-7.71489043E-02 0.00000000E+00 0.00000000E+00 9.73717494E-03 6.62450916E-04
 INPUT CARD> 2  3 6.62450916E-04-1.32490183E-03 0.00000000E+00 0.00000000E+00 0.00000000E+00
 INPUT CARD> 2  4-1.96090317E-01-1.96656153E-02-1.74855877E-02 3.02859263E-02 8.68214399E-03
 INPUT CARD> 2  5-1.96090317E-01-1.96656153E-02-1.74855877E-02-3.02859263E-02 8.68214399E-03
 INPUT CARD> 2  6-1.96090317E-01-1.96656153E-02 3.49711754E-02 0.00000000E+00 8.68214399E-03
 INPUT CARD> 3  1 0.00000000E+00 0.00000000E+00 0.00000000E+00 4.48608762E-01 0.00000000E+00
 INPUT CARD> 3  2 0.00000000E+00 2.18692520E-01 0.00000000E+00 0.00000000E+00 1.30198027E-02
 INPUT CARD> 3  3-1.30198027E-02 0.00000000E+00 0.00000000E+00 2.71832968E-02 0.00000000E+00
 INPUT CARD> 3  4-1.85332726E-01-7.03958951E-02 8.47929477E-03 1.95242443E-02 8.32835058E-03
 INPUT CARD> 3  5-1.85332726E-01-7.03958951E-02 8.47929477E-03-1.95242443E-02 8.32835058E-03
 INPUT CARD> 3  6 3.70665453E-01 1.40791790E-01-2.53376884E-02 0.00000000E+00-1.66567012E-02
 INPUT CARD> 4  1 0.00000000E+00 0.00000000E+00 0.00000000E+00 0.00000000E+00 4.48608762E-01
 INPUT CARD> 4  2 0.00000000E+00 0.00000000E+00 2.18692520E-01 0.00000000E+00 0.00000000E+00
 INPUT CARD> 4  3 0.00000000E+00 0.00000000E+00-1.50339731E-02 0.00000000E+00 2.71832968E-02
 INPUT CARD> 4  4 3.21005698E-01 1.21929267E-01 1.95242443E-02-1.40653607E-02-1.44251263E-02
  100000000 WORDS OF MEMORY AVAILABLE

     BASIS OPTIONS
     -------------
     GBASIS=CCD          IGAUSS=       0      POLAR=NONE    
     NDFUNC=       0     NFFUNC=       0     DIFFSP=       F
     NPFUNC=       0      DIFFS=       F     BASNAM=        


     RUN TITLE
     ---------
  NH3+ 3 states calculation at NH3 structure.                                    

 THE POINT GROUP OF THE MOLECULE IS C1      
 THE ORDER OF THE PRINCIPAL AXIS IS     0

 ATOM      ATOMIC                      COORDINATES (BOHR)
           CHARGE         X                   Y                   Z
 N           7.0     0.0706256893        0.0000000000       -0.3200824685
 H           1.0    -1.4566128100        1.0897932113        0.6342881342
 H           1.0    -1.4566127873       -1.0897932226        0.6342881569
 H           1.0     1.9318627047       -0.0000000227        0.1853330056

          INTERNUCLEAR DISTANCES (ANGS.)
          ------------------------------

                1 N          2 H          3 H          4 H     

   1 N       0.0000000    1.1139062 *  1.1139062 *  1.0205918 *
   2 H       1.1139062 *  0.0000000    1.1533876 *  1.8984839 *
   3 H       1.1139062 *  1.1533876 *  0.0000000    1.8984838 *
   4 H       1.0205918 *  1.8984839 *  1.8984838 *  0.0000000  

  * ... LESS THAN  3.000


     ATOMIC BASIS SET
     ----------------
 THE CONTRACTED PRIMITIVE FUNCTIONS HAVE BEEN UNNORMALIZED
 THE CONTRACTED BASIS FUNCTIONS ARE NOW NORMALIZED TO UNITY

  SHELL TYPE  PRIMITIVE        EXPONENT          CONTRACTION COEFFICIENT(S)

 N         

      1   S       1          9046.0000000    0.000699617413
      1   S       2          1357.0000000    0.005386054630
      1   S       3           309.3000000    0.027391021189
      1   S       4            87.7300000    0.103150591982
      1   S       5            28.5600000    0.278570663317
      1   S       6            10.2100000    0.448294849454
      1   S       7             3.8380000    0.278085928395
      1   S       8             0.7466000    0.015431561233

      2   S       9          9046.0000000   -0.000304990096
      2   S      10          1357.0000000   -0.002408026379
      2   S      11           309.3000000   -0.011944448725
      2   S      12            87.7300000   -0.048925992909
      2   S      13            28.5600000   -0.134472724725
      2   S      14            10.2100000   -0.315112577700
      2   S      15             3.8380000   -0.242857832550
      2   S      16             0.7466000    1.094382206854

      3   S      17             0.2248000    1.000000000000

      4   P      18            13.5500000    0.058905676772
      4   P      19             2.9170000    0.320461106714
      4   P      20             0.7973000    0.753042061792

      5   P      21             0.2185000    1.000000000000

      6   D      22             0.8170000    1.000000000000

 H         

      7   S      23            13.0100000    0.033498726390
      7   S      24             1.9620000    0.234800801174
      7   S      25             0.4446000    0.813682957883

      8   S      26             0.1220000    1.000000000000

      9   P      27             0.7270000    1.000000000000

 H         

     10   S      28            13.0100000    0.033498726390
     10   S      29             1.9620000    0.234800801174
     10   S      30             0.4446000    0.813682957883

     11   S      31             0.1220000    1.000000000000

     12   P      32             0.7270000    1.000000000000

 H         

     13   S      33            13.0100000    0.033498726390
     13   S      34             1.9620000    0.234800801174
     13   S      35             0.4446000    0.813682957883

     14   S      36             0.1220000    1.000000000000

     15   P      37             0.7270000    1.000000000000

 TOTAL NUMBER OF BASIS SET SHELLS             =   15
 NUMBER OF CARTESIAN GAUSSIAN BASIS FUNCTIONS =   30
 NOTE: THIS RUN WILL RESTRICT THE MO VARIATION SPACE TO SPHERICAL HARMONICS.
 THE NUMBER OF ORBITALS KEPT IN THE VARIATIONAL SPACE WILL BE PRINTED LATER.
 NUMBER OF ELECTRONS                          =    9
 CHARGE OF MOLECULE                           =    1
 SPIN MULTIPLICITY                            =    2
 NUMBER OF OCCUPIED ORBITALS (ALPHA)          =    5
 NUMBER OF OCCUPIED ORBITALS (BETA )          =    4
 TOTAL NUMBER OF ATOMS                        =    4
 THE NUCLEAR REPULSION ENERGY IS       11.2966815146

     $CONTRL OPTIONS
     ---------------
 SCFTYP=MCSCF        RUNTYP=ENERGY       EXETYP=RUN     
 MPLEVL=       2     CITYP =NONE         CCTYP =NONE         VBTYP =NONE    
 DFTTYP=NONE         TDDFT =NONE    
 MULT  =       2     ICHARG=       1     NZVAR =       0     COORD =UNIQUE  
 PP    =NONE         RELWFN=NONE         LOCAL =NONE         NUMGRD=       F
 ISPHER=       1     NOSYM =       1     MAXIT =     200     UNITS =ANGS    
 PLTORB=       F     MOLPLT=       F     AIMPAC=       F     FRIEND=        
 NPRINT=       7     IREST =       0     GEOM  =INPUT   
 NORMF =       0     NORMP =       0     ITOL  =      20     ICUT  =       9
 INTTYP=RYSQUAD      GRDTYP=BEST         QMTTOL= 1.0E-05

     $SYSTEM OPTIONS
     ---------------
  REPLICATED MEMORY=   100000000 WORDS (ON EVERY NODE).
 DISTRIBUTED MEMDDI=        1000 MILLION WORDS IN AGGREGATE,
 MEMDDI DISTRIBUTED OVER   1 PROCESSORS IS  1000000000 WORDS/PROCESSOR.
 TOTAL MEMORY REQUESTED ON EACH PROCESSOR=  1100000000 WORDS.
 TIMLIM=      525600.00 MINUTES, OR     365.0 DAYS.
 PARALL= T  BALTYP=  DLB     KDIAG=    3  COREFL= F
 MXSEQ2=     300 MXSEQ3=     150  mem10=         0

          ----------------
          PROPERTIES INPUT
          ----------------

     MOMENTS            FIELD           POTENTIAL          DENSITY
 IEMOM =       1   IEFLD =       0   IEPOT =       0   IEDEN =       0
 WHERE =COMASS     WHERE =NUCLEI     WHERE =NUCLEI     WHERE =NUCLEI  
 OUTPUT=BOTH       OUTPUT=BOTH       OUTPUT=BOTH       OUTPUT=BOTH    
 IEMINT=       0   IEFINT=       0                     IEDINT=       0
                                                       MORB  =       0

     -------------------------------
     INTEGRAL TRANSFORMATION OPTIONS
     -------------------------------
     NWORD  =            0
     CUTOFF = 1.0E-09     MPTRAN =       0
     DIRTRF =       T     AOINTS =DUP     

          ----------------------
          MCSCF INPUT PARAMETERS
          ----------------------
 CONVERGER SELECTION: FOCAS = F  SOSCF = F  FULLNR = T  QUD = F  JACOBI = F
 SECULAR EQUATION METHOD CISTEP = GMCCI   
 --- GENERAL INPUT OPTIONS:
 MAXIT =     100  MICIT =       1  ACURCY= 1.000E-06
 DAMP  =   0.000  CANONC=       T  ENGTOL= 1.000E-10
 EKT   =       F  NPUNCH=       2  NWORD =         0
 REGENERATE CI AFTER CONVERGENCE = NONE    
 DIABATIZATION AFTER CONVERGENCE =        F
 --- INPUT FOR FULLNR CONVERGER:
 METHOD=DM2       FORS  =       F  DROPC =       T
 LINSER=       F  FCORE =       F  NORB  =      30

          ----------------------
          INTEGRAL INPUT OPTIONS
          ----------------------
 NOPK  =       1 NORDER=       0 SCHWRZ=       T

 ------------------------------------------
 MULTIREFERENCE PERTURBATION THEORY CONTROL
 ------------------------------------------
 MRPT=GMCPT    READ CONVERGED MCSCF VECTORS= F


     ------------------------------------------
     THE POINT GROUP IS C1 , NAXIS= 1, ORDER= 1
     ------------------------------------------

 -- VARIATIONAL SPACE WILL BE RESTRICTED TO PURE SPHERICAL HARMONICS ONLY --
 AFTER EXCLUDING CONTAMINANT COMBINATIONS FROM THE CARTESIAN GAUSSIAN BASIS
 SET, THE NUMBER OF SPHERICAL HARMONICS KEPT IN THE VARIATION SPACE IS   29

     DIMENSIONS OF THE SYMMETRY SUBSPACES ARE
 A   =   29

 ..... DONE SETTING UP THE RUN .....
 CPU     0: STEP CPU TIME=     0.03 TOTAL CPU TIME=          0.0 (      0.0 MIN)
 TOTAL WALL CLOCK TIME=          0.1 SECONDS, CPU UTILIZATION IS    60.00%

          ********************
          1 ELECTRON INTEGRALS
          ********************
 TIME TO DO   DIPOLE INTEGRALS=      0.00
 ...... END OF ONE-ELECTRON INTEGRALS ......
 CPU     0: STEP CPU TIME=     0.00 TOTAL CPU TIME=          0.0 (      0.0 MIN)
 TOTAL WALL CLOCK TIME=          0.1 SECONDS, CPU UTILIZATION IS    60.00%

          -------------
          GUESS OPTIONS
          -------------
          GUESS =MOREAD            NORB  =      29          NORDER=       0
          MIX   =       F          PRTMO =       F          PUNMO =       F
          TOLZ  = 1.0E-08          TOLE  = 1.0E-05
          SYMDEN=       F          PURIFY=       T

 INITIAL GUESS ORBITALS GENERATED BY MOREAD   ROUTINE.

 STATISTICS FOR GENERATION OF SYMMETRY ORBITAL -Q- MATRIX
 NUMBER OF CARTESIAN ATOMIC ORBITALS=         30
 NUMBER OF SPHERICAL CONTAMINANTS DROPPED=     1
 NUMBER OF LINEARLY DEPENDENT MOS DROPPED=     0
 TOTAL NUMBER OF MOS IN VARIATION SPACE=      29
 ORBITAL PURIFICATION WILL OCCUR

 SYMMETRIES FOR INITIAL GUESS ORBITALS FOLLOW.   BOTH SET(S).
     5 ORBITALS ARE OCCUPIED (    1 CORE ORBITALS).
     1=A        2=A        3=A        4=A        5=A        6=A        7=A   
     8=A        9=A       10=A       11=A       12=A       13=A       14=A   
    15=A       16=A       17=A       18=A       19=A       20=A       21=A   
    22=A       23=A       24=A       25=A       26=A       27=A       28=A   
    29=A   
 ...... END OF INITIAL ORBITAL SELECTION ......
 CPU     0: STEP CPU TIME=     0.01 TOTAL CPU TIME=          0.0 (      0.0 MIN)
 TOTAL WALL CLOCK TIME=          0.1 SECONDS, CPU UTILIZATION IS    80.00%

                    ----------------------
                    AO INTEGRAL TECHNOLOGY
                    ----------------------
     S,P,L SHELL ROTATED AXIS INTEGRALS, REPROGRAMMED BY
        KAZUYA ISHIMURA (IMS) AND JOSE SIERRA (SYNSTAR).
     S,P,D,L SHELL ROTATED AXIS INTEGRALS PROGRAMMED BY
        KAZUYA ISHIMURA (INSTITUTE FOR MOLECULAR SCIENCE).
     S,P,D,F,G SHELL TO TOTAL QUARTET ANGULAR MOMENTUM SUM 5,
        ERIC PROGRAM BY GRAHAM FLETCHER (ELORET AND NASA ADVANCED
        SUPERCOMPUTING DIVISION, AMES RESEARCH CENTER).
     S,P,D,F,G,L SHELL GENERAL RYS QUADRATURE PROGRAMMED BY
        MICHEL DUPUIS (PACIFIC NORTHWEST NATIONAL LABORATORY).

          --------------------
          2 ELECTRON INTEGRALS
          --------------------

 DIRECT SCF METHOD SKIPS INTEGRAL STORAGE ON DISK.
 DIRECT TRANSFORMATION SKIPS AO INTEGRAL STORAGE ON DISK.
  ...... END OF TWO-ELECTRON INTEGRALS .....
 STEP CPU TIME =     0.02 TOTAL CPU TIME =          0.1 (      0.0 MIN)
 TOTAL WALL CLOCK TIME=          0.1 SECONDS, CPU UTILIZATION IS    75.00%
 DDI: Creating Array [0] - 900 x 36 = 32400 words.
 DDI: Creating Array [1] - 21 x 288 = 6048 words.
 DDI: Creating Array [2] - 36 x 36 = 1296 words.
 DDI: Creating Array [3] - 465 x 36 = 16740 words.

          -----------------
          MCSCF CALCULATION
          -----------------

 ----- NUCLEAR ENERGY ----- =        11.2966815146

     -------------------------------------------------
     GMC-PT/GMC-QDPT or general MCSCF input parameters
     -------------------------------------------------
 # of frozen core orbs. =         0 ->         0
 # of doubly occ. orbs. =         1
 # of active      orbs. =         7
 # of virtual     orbs. =        21
 # of active electrons  =         7
 # of states in CI      =         3
 Highest state in CI    =         3
 kstate =  1 1 1
 avecoe =  0.333 0.333 0.333
 State symmetry           = A           
 Assigned symmetry number = 1

 <<<Act. MO sym.: 1111111

 <<<Division of 1-ext.:  0
 <<<Division of 2-ext.:  0

 *** Reference space

 Reference type: ORMAS (= Occupation restricted multiple active space)
 # of orbitals          =  7
 # of minimum electrons =  7
 # of maximum electrons =  7
 State symmetry    =    1 (input)
 2*Sz              =    1 (input)
 Spin multiplicity =    2 (input)
 Dimension of reference space =      1225  (from      3432 walks)

 Dimension of reference space =      1225  (from      1225 walks)

 <<<Ionized spaces for Ref-CI:
      0:         1225 /   -1-0:         1960 /  0-1-0:         2891

 EVALUATING EXCHANGE INTEGRALS FOR DIRECT INTEGRAL TRANSFORMATION
 SCHWARZ INEQUALITY OVERHEAD:       465 INTEGRALS, T=        0.00

     --------------------------------------------
     PARTIAL TWO ELECTRON INTEGRAL TRANSFORMATION
     --------------------------------------------

 NUMBER OF CORE MOLECULAR ORBITALS     =    1
 NUMBER OF OCCUPIED MOLECULAR ORBITALS =    8
 TOTAL NUMBER OF MOLECULAR ORBITALS    =   29
 TOTAL NUMBER OF ATOMIC ORBITALS       =   30
 THRESHOLD FOR KEEPING TRANSFORMED 2E- INTEGRALS = 1.000E-09

 -------------------------------     ------------------------------
 DISTRIBUTED DATA TRANSFORMATION     PROGRAM WRITTEN BY G. FLETCHER
 -------------------------------     ------------------------------

 THE DISTRIBUTED MEMORY REQUIRED FOR THIS STEP IS MEMDDI=         1 MWORDS
 CREATING DISTRIBUTED STORAGE FOR [VIR OCC|VIR OCC] INTEGRALS
 CREATING DISTRIBUTED STORAGE FOR [VIR OCC|OCC OCC] INTEGRALS
 CREATING DISTRIBUTED STORAGE FOR [OCC OCC|OCC OCC] INTEGRALS
 CREATING DISTRIBUTED STORAGE FOR [VIR VIR|OCC OCC] INTEGRALS
 FOR    1 PROCESSORS, THE REPLICATED MEMORY NEEDED IS       73700 WORDS.
 SCHWARZ INEQUALITY OVERHEAD:       465 INTEGRALS, T=        0.00

      DIRECT 4-INDEX TRANSFORMATION 
      SCHWARZ INEQUALITY TEST SKIPPED          0 INTEGRAL BLOCKS
 ----- FROZEN CORE ENERGY =       -47.6692627969
 ... END OF INTEGRAL TRANSFORMATION ...
 CPU     0: STEP CPU TIME=     0.22 TOTAL CPU TIME=          0.3 (      0.0 MIN)
 TOTAL WALL CLOCK TIME=          0.3 SECONDS, CPU UTILIZATION IS    93.33%

     --------------------------------     -----------------------------
     MCHF NEWTON-RAPHSON OPTIMIZATION     CODE WRITTEN BY MICHEL DUPUIS
     --------------------------------     -----------------------------
     PARALLEL VERSION WRITTEN BY G. FLETCHER (ELORET)
     NASA ADVANCED SUPERCOMPUTING DIVISION, AMES RESEARCH CENTER

 NUMBER OF INDEPENDENT ORBITAL ROTATION PARAMETERS =   114
 ..... DONE SOLVING NEWTON-RAPHSON EQUATIONS .....
 CPU     0: STEP CPU TIME=     0.72 TOTAL CPU TIME=          1.0 (      0.0 MIN)
 TOTAL WALL CLOCK TIME=          1.0 SECONDS, CPU UTILIZATION IS    99.01%
 ..... DONE WITH NTN-RPH ORBITAL ROTATIONS ..... 
 CPU     0: STEP CPU TIME=     0.00 TOTAL CPU TIME=          1.0 (      0.0 MIN)
 TOTAL WALL CLOCK TIME=          1.0 SECONDS, CPU UTILIZATION IS    99.01%
 MAXIMUM MEMORY USED BY NTN-RPH CODE WAS     57645 WORDS.

 ITER     TOTAL ENERGY      DEL(E)  LAGRANGIAN ASYMMETRY   SQCDF  MICIT   DAMP
   1      -55.612690174 -0.612690174  0.132739   13    3 1.220E-01  1   0.0000
   2      -55.662160993 -0.049470819  0.021096   12    5 4.533E-01  1   0.0000
   3      -55.697302170 -0.035141178  0.013235   11    6 2.337E-01  1   0.0217
   4      -55.712893236 -0.015591066  0.004659    9    7 4.834E-02  1   0.0053
   5      -55.715056448 -0.002163212  0.000826   12    5 1.549E-03  1   0.0000
   6      -55.715124677 -0.000068229  0.000280   24    5 1.484E-04  1   0.0000
   7      -55.715132298 -0.000007621  0.000125   22    5 2.617E-05  1   0.0000
   8      -55.715133710 -0.000001412  0.000063   22    5 5.431E-06  1   0.0000
   9      -55.715134012 -0.000000302  0.000033   22    5 1.299E-06  1   0.0000
  10      -55.715134087 -0.000000074  0.000018   22    5 3.598E-07  1   0.0000
  11      -55.715134108 -0.000000021  0.000010   22    5 1.137E-07  1   0.0000
  12      -55.715134114 -0.000000007  0.000006   22    5 3.950E-08  1   0.0000
  13      -55.715134116 -0.000000002  0.000004   22    5 1.456E-08  1   0.0000
  14      -55.715134117 -0.000000001  0.000002   22    5 5.557E-09  1   0.0000
  15      -55.715134118 -0.000000000  0.000001   22    5 2.156E-09  1   0.0000
  16      -55.715134118 -0.000000000  0.000001   12    7 8.528E-10  1   0.0000

          --------------------
          LAGRANGIAN CONVERGED
          --------------------

 FINAL MCSCF ENERGY IS      -55.7151341178 AFTER  16 ITERATIONS

 -MCCI- BASED ON OPTIMIZED ORBITALS
 ----------------------------------

 PLEASE NOTE: IF THE ACTIVE ORBITALS ARE CANONICALIZED BELOW,
 THE FOLLOWING CI EXPANSION COEFFICIENTS AND THE DENSITY DO NOT
 CORRESPOND TO THE PRINTED ORBITALS.  THE PRINTED EXPANSIONS MATCH
 THE ORBITALS USED DURING THE LAST ITERATION.  IF YOU WISH TO SEE
 CI EXPANSIONS BASED ON THE CANONICAL (OR NATURAL) ORBITALS, YOU
 MUST RUN A CI CALCULATION WITH THAT ORBITAL CHOICE READ IN $VEC.

 Averaged energy =     -55.715134118

 State #    1  Energy =     -55.849581833  S =  0.500

      Det      Coef    Occupancy (Ignoring core)
      ---      ----    --------- --------- -----
        1    0.943502  11110001110000
        5   -0.067673  01111001110000
        8   -0.136632  10110101110000
       17   -0.126487  11010011110000
       71    0.109420  11110001011000
      211    0.051592  11110000110100
      386    0.113962  11110001010010
      701    0.090627  11110001100001
      717    0.076483  11010011100001

 State #    2  Energy =     -55.750209715  S =  0.500

      Det      Coef    Occupancy (Ignoring core)
      ---      ----    --------- --------- -----
       36   -0.964057  11110001101000
       40    0.068002  01111001101000
       43    0.108239  10110101101000
       52    0.086804  11010011101000
      281   -0.053656  11110000101100
      456   -0.102533  11110001001010

 State #    3  Energy =     -55.545610805  S =  0.500

      Det      Coef    Occupancy (Ignoring core)
      ---      ----    --------- --------- -----
        1   -0.108045  11110001110000
       71    0.958876  11110001011000
       78   -0.069320  10110101011000
       87   -0.071533  11010011011000
      122    0.052626  11010010111000
      316    0.076906  11110000011100
      806   -0.090777  11110001001001
      822   -0.083684  11010011001001

 DENSITY MATRIX OVER ACTIVE MO-S

             1           2           3           4           5

    1    1.9752204
    2   -0.0086782   1.6351181
    3   -0.0000000  -0.0000000   1.6285994
    4    0.0022212  -0.0002866  -0.0000000   1.6540693
    5    0.1039601   0.0281720   0.0000000  -0.0000163   0.0313922
    6    0.0108637  -0.1596709   0.0000000  -0.0273383  -0.0001367
    7    0.0000000   0.0000000   0.1360481   0.0000000   0.0000000

             6           7

    6    0.0349056
    7   -0.0000000   0.0406951

 FORMING THE "STANDARD FOCK OPERATOR" IN DIRECT AO INTEGRAL MODE...
 ONLY THE    1 CORE AND   21 VIRTUAL ORBITALS WILL BE CANONICALIZED

          ----------------------
          MCSCF NATURAL ORBITALS
          ----------------------

                      1          2          3          4          5
                  -15.9867     1.9810     1.6558     1.6499     1.6402
                     A          A          A          A          A   
    1  N  1  S    1.001168   0.008183  -0.009418   0.004108   0.000000
    2  N  1  S   -0.001809   0.434886  -0.134924   0.138000   0.000000
    3  N  1  S   -0.006238   0.321686  -0.228611   0.187267   0.000000
    4  N  1  X    0.000204  -0.024437   0.271263   0.383291   0.000000
    5  N  1  Y   -0.000000  -0.000000   0.000000  -0.000000   0.546261
    6  N  1  Z    0.001189   0.088376   0.524177  -0.262253  -0.000000
    7  N  1  X    0.000053  -0.003983   0.123681   0.107928   0.000000
    8  N  1  Y   -0.000000   0.000000   0.000000  -0.000000   0.308439
    9  N  1  Z   -0.000556   0.016097   0.353113  -0.153222  -0.000000
   10  N  1 XX    0.000539   0.003727  -0.007854   0.008736   0.000000
   11  N  1 YY   -0.000299  -0.003797  -0.012684   0.002799  -0.000000
   12  N  1 ZZ   -0.000239   0.000070   0.020538  -0.011535  -0.000000
   13  N  1 XY   -0.000000   0.000000  -0.000000  -0.000000  -0.012214
   14  N  1 XZ   -0.000058  -0.002911   0.009655   0.019232   0.000000
   15  N  1 YZ   -0.000000   0.000000   0.000000  -0.000000   0.024699
   16  H  2  S   -0.001604   0.187794   0.005017  -0.258426   0.283300
   17  H  2  S    0.000304   0.003274   0.016855  -0.036765   0.097178
   18  H  2  X   -0.000634   0.025725   0.007632  -0.010245   0.026943
   19  H  2  Y    0.000519  -0.020097  -0.002530   0.028092  -0.004488
   20  H  2  Z    0.000458  -0.011227   0.023378   0.002330  -0.014895
   21  H  3  S   -0.001604   0.187794   0.005017  -0.258426  -0.283300
   22  H  3  S    0.000304   0.003274   0.016855  -0.036765  -0.097178
   23  H  3  X   -0.000634   0.025725   0.007632  -0.010245  -0.026943
   24  H  3  Y   -0.000519   0.020097   0.002530  -0.028092  -0.004488
   25  H  3  Z    0.000458  -0.011227   0.023378   0.002330   0.014895
   26  H  4  S   -0.002085   0.173406   0.264566   0.280836  -0.000000
   27  H  4  S    0.000686  -0.001722   0.040481   0.023794   0.000000
   28  H  4  X    0.001113  -0.034530  -0.028935  -0.029023   0.000000
   29  H  4  Y   -0.000000   0.000000   0.000000   0.000000   0.019457
   30  H  4  Z    0.000368  -0.002983   0.011576  -0.020431  -0.000000

                      6          7          8
                    0.0291     0.0259     0.0180
                     A          A          A   
    1  N  1  S    0.000000   0.171465  -0.152141
    2  N  1  S    0.000000   0.611074  -0.443127
    3  N  1  S    0.000000   0.210629   0.040816
    4  N  1  X    0.000000  -0.358282  -0.866223
    5  N  1  Y    0.800034  -0.000000   0.000000
    6  N  1  Z    0.000000   0.607128  -0.162103
    7  N  1  X    0.000000  -0.098994  -0.103486
    8  N  1  Y   -0.045045  -0.000000   0.000000
    9  N  1  Z   -0.000000  -0.034717   0.072238
   10  N  1 XX    0.000000  -0.045803   0.010477
   11  N  1 YY   -0.000000   0.047282   0.006052
   12  N  1 ZZ   -0.000000  -0.001480  -0.016529
   13  N  1 XY    0.045761  -0.000000   0.000000
   14  N  1 XZ    0.000000   0.045130   0.040195
   15  N  1 YZ   -0.020343  -0.000000   0.000000
   16  H  2  S   -0.620806  -0.522365  -0.168021
   17  H  2  S   -0.203552  -0.072856  -0.043719
   18  H  2  X   -0.049311  -0.023838   0.016572
   19  H  2  Y    0.015239   0.058039   0.019854
   20  H  2  Z    0.017790  -0.018477  -0.005923
   21  H  3  S    0.620806  -0.522365  -0.168021
   22  H  3  S    0.203552  -0.072856  -0.043719
   23  H  3  X    0.049311  -0.023838   0.016572
   24  H  3  Y    0.015239  -0.058039  -0.019854
   25  H  3  Z   -0.017790  -0.018477  -0.005923
   26  H  4  S   -0.000000  -0.280997   0.866728
   27  H  4  S   -0.000000  -0.011801   0.148237
   28  H  4  X    0.000000   0.041042  -0.087353
   29  H  4  Y   -0.008815   0.000000   0.000000
   30  H  4  Z    0.000000  -0.001066   0.020419

          ------------------------
          MCSCF OPTIMIZED ORBITALS
          ------------------------

                      1          2          3          4          5
                  -15.9867     0.0000     0.0000     0.0000     0.0000
                     A          A          A          A          A   
    1  N  1  S    1.001168  -0.002300  -0.014307  -0.000000  -0.011816
    2  N  1  S   -0.001809   0.400144   0.010414   0.000000  -0.185345
    3  N  1  S   -0.006238   0.313576   0.056872   0.000000  -0.286031
    4  N  1  X    0.000204  -0.003199   0.374110   0.000000   0.044368
    5  N  1  Y   -0.000000  -0.000000  -0.000000   0.476491   0.000000
    6  N  1  Z    0.001189   0.051434   0.000961  -0.000000   0.586677
    7  N  1  X    0.000053   0.003532   0.141212   0.000000   0.056542
    8  N  1  Y   -0.000000   0.000000   0.000000   0.311147   0.000000
    9  N  1  Z   -0.000556   0.016987   0.035783   0.000000   0.384775
   10  N  1 XX    0.000539   0.006398   0.004514   0.000000  -0.011056
   11  N  1 YY   -0.000299  -0.006229  -0.002257  -0.000000  -0.012219
   12  N  1 ZZ   -0.000239  -0.000169  -0.002257   0.000000   0.023275
   13  N  1 XY   -0.000000   0.000000  -0.000000  -0.016048  -0.000000
   14  N  1 XZ   -0.000058  -0.004377   0.025923  -0.000000   0.000356
   15  N  1 YZ   -0.000000   0.000000   0.000000   0.026334   0.000000
   16  H  2  S   -0.001604   0.207207  -0.251513   0.334895   0.121513
   17  H  2  S    0.000304   0.005901  -0.029664   0.114080   0.031090
   18  H  2  X   -0.000634   0.026897  -0.004685   0.031025   0.011853
   19  H  2  Y    0.000519  -0.022270   0.026581  -0.005764  -0.014929
   20  H  2  Z    0.000458  -0.010100   0.012409  -0.016349   0.019307
   21  H  3  S   -0.001604   0.207207  -0.251513  -0.334895   0.121513
   22  H  3  S    0.000304   0.005901  -0.029664  -0.114080   0.031090
   23  H  3  X   -0.000634   0.026897  -0.004685  -0.031025   0.011853
   24  H  3  Y   -0.000519   0.022270  -0.026581  -0.005764   0.014929
   25  H  3  Z    0.000458  -0.010100   0.012409   0.016349   0.019307
   26  H  4  S   -0.002085   0.204581   0.448899  -0.000000   0.115724
   27  H  4  S    0.000686   0.001147   0.054374   0.000000   0.026912
   28  H  4  X    0.001113  -0.038343  -0.046387   0.000000  -0.013378
   29  H  4  Y   -0.000000   0.000000   0.000000   0.020134   0.000000
   30  H  4  Z    0.000368  -0.003144  -0.010501  -0.000000   0.020099

                      6          7          8          9         10
                    0.0000     0.0000     0.0000     0.1202     0.1950
                     A          A          A          A          A   
    1  N  1  S    0.206827   0.097941   0.000000  -0.103762   0.022262
    2  N  1  S    0.732540   0.254862   0.000000  -0.149033   0.023737
    3  N  1  S    0.209185  -0.098528   0.000000   1.159358  -0.350488
    4  N  1  X   -0.098275   0.973759  -0.000000   0.034480   0.132819
    5  N  1  Y   -0.000000  -0.000000   0.843452   0.000000  -0.000000
    6  N  1  Z    0.631974  -0.001758  -0.000000  -0.139214   0.013005
    7  N  1  X   -0.063913   0.142250   0.000000  -0.214628  -0.767370
    8  N  1  Y   -0.000000  -0.000000  -0.018743  -0.000000   0.000000
    9  N  1  Z   -0.051938  -0.050299  -0.000000   0.335574   0.007483
   10  N  1 XX   -0.046565   0.002781   0.000000   0.088905  -0.074116
   11  N  1 YY    0.043458  -0.019328  -0.000000  -0.048569   0.041354
   12  N  1 ZZ    0.003107   0.016547  -0.000000  -0.040335   0.032762
   13  N  1 XY   -0.000000  -0.000000   0.044561   0.000000  -0.000000
   14  N  1 XZ    0.032517  -0.048737   0.000000  -0.056077  -0.099541
   15  N  1 YZ   -0.000000  -0.000000  -0.018177  -0.000000   0.000000
   16  H  2  S   -0.449565   0.283028  -0.594562   0.360980   0.186283
   17  H  2  S   -0.058213   0.059964  -0.194583  -0.880535  -0.674292
   18  H  2  X   -0.026185  -0.009817  -0.046850  -0.095228  -0.016375
   19  H  2  Y    0.049638  -0.032754   0.014804  -0.013966   0.009518
   20  H  2  Z   -0.016464   0.012437   0.016464   0.045173   0.065255
   21  H  3  S   -0.449565   0.283028   0.594562   0.360980   0.186284
   22  H  3  S   -0.058213   0.059964   0.194583  -0.880535  -0.674292
   23  H  3  X   -0.026185  -0.009817   0.046850  -0.095228  -0.016375
   24  H  3  Y   -0.049638   0.032754   0.014804   0.013966  -0.009518
   25  H  3  Z   -0.016464   0.012437  -0.016464   0.045173   0.065255
   26  H  4  S   -0.491871  -0.714435  -0.000000   0.306289  -0.540336
   27  H  4  S   -0.051432  -0.134141  -0.000000  -0.580234   1.934660
   28  H  4  X    0.060851   0.068434   0.000000   0.076937  -0.127487
   29  H  4  Y   -0.000000  -0.000000  -0.007134  -0.000000   0.000000
   30  H  4  Z   -0.007042  -0.020117   0.000000  -0.024378  -0.075345

                     11         12         13         14         15
                    0.2417     0.5278     0.5681     0.6364     0.8517
                     A          A          A          A          A   
    1  N  1  S   -0.000000  -0.107930   0.000000   0.008528  -0.550747
    2  N  1  S   -0.000000  -0.112182   0.000000  -0.043740  -1.233890
    3  N  1  S    0.000000   0.982637  -0.000000  -0.198534   2.190947
    4  N  1  X   -0.000000  -0.220638   0.000000  -0.402646   0.095356
    5  N  1  Y    0.018779  -0.000000  -0.693598  -0.000000  -0.000000
    6  N  1  Z   -0.000000  -0.663917  -0.000000   0.285917   0.297889
    7  N  1  X    0.000000   0.635231  -0.000000   1.902625  -0.121526
    8  N  1  Y   -0.445989   0.000000   1.536681   0.000000   0.000000
    9  N  1  Z    0.000000   1.013970   0.000000  -0.683624  -0.097597
   10  N  1 XX   -0.000000  -0.035051   0.000000   0.004165  -0.048861
   11  N  1 YY    0.000000   0.011071  -0.000000  -0.012096   0.077981
   12  N  1 ZZ    0.000000   0.023980  -0.000000   0.007931  -0.029120
   13  N  1 XY    0.092668  -0.000000   0.022369   0.000000  -0.000000
   14  N  1 XZ    0.000000   0.001835   0.000000  -0.053190   0.024817
   15  N  1 YZ   -0.060409   0.000000   0.004366   0.000000  -0.000000
   16  H  2  S   -0.599169  -0.208392  -0.372998   0.555583   0.003445
   17  H  2  S    2.027747   0.002479  -0.895188   0.356778  -0.357596
   18  H  2  X    0.029420   0.071833  -0.086642   0.154269   0.062340
   19  H  2  Y   -0.084723   0.079547   0.010440  -0.147869   0.326519
   20  H  2  Z   -0.019353   0.097178   0.063804   0.062396   0.046240
   21  H  3  S    0.599169  -0.208392   0.372998   0.555583   0.003445
   22  H  3  S   -2.027747   0.002479   0.895188   0.356778  -0.357596
   23  H  3  X   -0.029420   0.071833   0.086642   0.154269   0.062340
   24  H  3  Y   -0.084723  -0.079547   0.010440   0.147869  -0.326519
   25  H  3  Z    0.019353   0.097178  -0.063804   0.062396   0.046240
   26  H  4  S   -0.000000  -0.659072   0.000000  -0.466042  -0.179028
   27  H  4  S    0.000000  -0.429375  -0.000000  -0.762315  -0.479363
   28  H  4  X    0.000000   0.099399  -0.000000   0.184187   0.084937
   29  H  4  Y    0.044659  -0.000000   0.090399  -0.000000  -0.000000
   30  H  4  Z   -0.000000   0.052148   0.000000  -0.134935   0.173964

                     16         17         18         19         20
                    1.0212     1.1109     1.2610     1.3194     1.4845
                     A          A          A          A          A   
    1  N  1  S   -0.279154  -0.000000  -0.248603   0.000000  -0.490644
    2  N  1  S   -0.576262  -0.000000  -0.520792   0.000000  -1.033264
    3  N  1  S    1.177235   0.000000   1.014892  -0.000000   1.678363
    4  N  1  X    0.066535  -0.000000  -0.194405  -0.000000   0.168105
    5  N  1  Y    0.000000   0.095921   0.000000   0.127613  -0.000000
    6  N  1  Z    0.082913   0.000000  -0.017498   0.000000  -0.068476
    7  N  1  X   -0.463845   0.000000   1.288113   0.000000  -0.675890
    8  N  1  Y   -0.000000  -0.436217   0.000000  -0.293041  -0.000000
    9  N  1  Z   -0.140707   0.000000   0.251633  -0.000000   0.825172
   10  N  1 XX   -0.038126   0.000000   0.037579   0.000000   0.121426
   11  N  1 YY   -0.223732  -0.000000   0.062238  -0.000000   0.007958
   12  N  1 ZZ    0.261858  -0.000000  -0.099817   0.000000  -0.129383
   13  N  1 XY    0.000000   0.218682   0.000000   0.021188  -0.000000
   14  N  1 XZ    0.033422   0.000000   0.027153   0.000000  -0.016620
   15  N  1 YZ    0.000000   0.295128  -0.000000  -0.168995   0.000000
   16  H  2  S   -0.395069   0.163951   0.106899   0.204567  -0.695202
   17  H  2  S   -0.130820   0.098169   0.047773  -0.017924  -0.117653
   18  H  2  X   -0.071208   0.107998  -0.395097  -0.527775   0.002882
   19  H  2  Y   -0.308797  -0.016984  -0.185964  -0.029440  -0.179674
   20  H  2  Z    0.381129   0.381909  -0.403484  -0.296275  -0.133395
   21  H  3  S   -0.395069  -0.163951   0.106899  -0.204567  -0.695202
   22  H  3  S   -0.130820  -0.098169   0.047773   0.017924  -0.117653
   23  H  3  X   -0.071208  -0.107998  -0.395097   0.527775   0.002882
   24  H  3  Y    0.308797  -0.016984   0.185964  -0.029440   0.179674
   25  H  3  Z    0.381129  -0.381909  -0.403484   0.296275  -0.133395
   26  H  4  S    0.012119  -0.000000  -0.812626  -0.000000  -0.181797
   27  H  4  S   -0.094294  -0.000000  -0.449020  -0.000000  -0.061117
   28  H  4  X   -0.045608   0.000000  -0.167946  -0.000000   0.115238
   29  H  4  Y   -0.000000   0.624987  -0.000000   0.575271   0.000000
   30  H  4  Z    0.277250  -0.000000   0.357711   0.000000  -0.814184

                     21         22         23         24         25
                    1.6110     1.8569     1.8890     2.0061     2.0709
                     A          A          A          A          A   
    1  N  1  S    0.000000  -0.007795   0.078002   0.024169  -0.000000
    2  N  1  S    0.000000   0.093083   0.212623   0.101143  -0.000000
    3  N  1  S   -0.000000   1.010875   0.726081   0.760116  -0.000000
    4  N  1  X   -0.000000  -0.546231   0.376306   0.190581  -0.000000
    5  N  1  Y   -0.216450   0.000000  -0.000000  -0.000000   0.149795
    6  N  1  Z    0.000000   0.250480   0.113426   0.099162  -0.000000
    7  N  1  X    0.000000  -0.290694  -0.084297   0.204752  -0.000000
    8  N  1  Y   -0.478950   0.000000  -0.000000   0.000000  -0.174994
    9  N  1  Z   -0.000000   0.399513   0.180131   0.482479  -0.000000
   10  N  1 XX    0.000000  -0.037584  -0.312408  -0.107778   0.000000
   11  N  1 YY   -0.000000   0.034921   0.636042  -0.664546   0.000000
   12  N  1 ZZ    0.000000   0.002663  -0.323634   0.772324  -0.000000
   13  N  1 XY   -0.091131   0.000000   0.000000   0.000000   0.297602
   14  N  1 XZ    0.000000   0.222488   0.000625  -0.194581   0.000000
   15  N  1 YZ    0.308540  -0.000000   0.000000   0.000000  -0.036655
   16  H  2  S   -0.065292  -0.200327  -0.199506  -0.126148  -0.245585
   17  H  2  S    0.401537  -0.368268  -0.043898  -0.031760  -0.345499
   18  H  2  X    0.407300  -0.659598  -0.224757  -0.232467   0.062716
   19  H  2  Y    0.013161   0.283461  -0.169976   0.185973   1.086191
   20  H  2  Z   -0.581294   0.388640   0.079750  -0.324105  -0.101176
   21  H  3  S    0.065292  -0.200327  -0.199506  -0.126148   0.245585
   22  H  3  S   -0.401537  -0.368268  -0.043898  -0.031760   0.345499
   23  H  3  X   -0.407300  -0.659598  -0.224757  -0.232467  -0.062716
   24  H  3  Y    0.013161  -0.283461   0.169976  -0.185973   1.086191
   25  H  3  Z    0.581294   0.388640   0.079750  -0.324105   0.101176
   26  H  4  S   -0.000000  -0.125245  -0.054268  -0.290358   0.000000
   27  H  4  S   -0.000000   0.126243  -0.361374  -0.350608   0.000000
   28  H  4  X   -0.000000  -0.059813   0.913926   0.713143  -0.000000
   29  H  4  Y    0.457411  -0.000000  -0.000000  -0.000000  -0.058987
   30  H  4  Z    0.000000  -0.545648   0.165418  -0.101006  -0.000000

                     26         27         28         29
                    2.1908     2.6486     2.7993     2.8067
                     A          A          A          A   
    1  N  1  S    0.000000   0.136226   0.017880  -0.000000
    2  N  1  S    0.000000   0.171402   0.173320  -0.000000
    3  N  1  S   -0.000000  -1.243966   1.828488  -0.000003
    4  N  1  X    0.000000   0.424072   0.437260  -0.000001
    5  N  1  Y    0.052705   0.000000  -0.000001  -0.331615
    6  N  1  Z   -0.000000  -0.163811   0.254246  -0.000000
    7  N  1  X   -0.000000   1.351208   0.710426  -0.000001
    8  N  1  Y    0.534551  -0.000000  -0.000001  -0.592329
    9  N  1  Z   -0.000000  -0.396753   0.256598  -0.000000
   10  N  1 XX    0.000000  -0.234417   1.400763  -0.000002
   11  N  1 YY   -0.000000  -0.043575  -0.676494   0.000001
   12  N  1 ZZ   -0.000000   0.277992  -0.724269   0.000001
   13  N  1 XY    0.442993  -0.000000   0.000002   1.257397
   14  N  1 XZ    0.000000   1.320406   0.255684  -0.000000
   15  N  1 YZ    0.883660   0.000000  -0.000001  -0.605739
   16  H  2  S   -0.126240   0.920123  -0.227491   0.906140
   17  H  2  S   -0.217229   0.305966  -0.041637   0.361262
   18  H  2  X   -0.445856   0.474571  -0.079153   0.652872
   19  H  2  Y   -0.088230  -0.355622   0.173568  -0.552564
   20  H  2  Z   -0.174785  -0.317550   0.241648  -0.457080
   21  H  3  S    0.126240   0.920123  -0.227494  -0.906139
   22  H  3  S    0.217229   0.305966  -0.041638  -0.361262
   23  H  3  X    0.445856   0.474571  -0.079155  -0.652871
   24  H  3  Y   -0.088231   0.355622  -0.173570  -0.552563
   25  H  3  Z    0.174785  -0.317550   0.241650   0.457080
   26  H  4  S    0.000000  -0.511858  -1.593002   0.000003
   27  H  4  S    0.000000  -0.265672  -0.497136   0.000001
   28  H  4  X   -0.000000   0.372824   1.218096  -0.000002
   29  H  4  Y   -0.650596  -0.000000  -0.000000  -0.252163
   30  H  4  Z    0.000000  -0.232588   0.499273  -0.000001
 .....DONE WITH MCSCF ITERATIONS.....
 CPU     0: STEP CPU TIME=     9.02 TOTAL CPU TIME=         10.0 (      0.2 MIN)
 TOTAL WALL CLOCK TIME=         10.0 SECONDS, CPU UTILIZATION IS    99.80%

     ----------------------------------------------------------------
     PROPERTY VALUES FOR THE MCSCF SELF-CONSISTENT FIELD WAVEFUNCTION
     ----------------------------------------------------------------

          -----------------
          ENERGY COMPONENTS
          -----------------

         WAVEFUNCTION NORMALIZATION =       1.0000000000

                ONE ELECTRON ENERGY =     -94.0533875948
                TWO ELECTRON ENERGY =      27.0415719624
           NUCLEAR REPULSION ENERGY =      11.2966815146
                                      ------------------
                       TOTAL ENERGY =     -55.7151341178

 ELECTRON-ELECTRON POTENTIAL ENERGY =      27.0415719624
  NUCLEUS-ELECTRON POTENTIAL ENERGY =    -149.8131317985
   NUCLEUS-NUCLEUS POTENTIAL ENERGY =      11.2966815146
                                      ------------------
             TOTAL POTENTIAL ENERGY =    -111.4748783215
               TOTAL KINETIC ENERGY =      55.7597442037
                 VIRIAL RATIO (V/T) =       1.9991999589

          ---------------------------------------
          MULLIKEN AND LOWDIN POPULATION ANALYSES
          ---------------------------------------

     ATOMIC MULLIKEN POPULATION IN EACH MOLECULAR ORBITAL

                      1          2          3          4          5

                  2.000000   1.981033   1.655810   1.649892   1.640171

    1             2.000767   1.348371   1.437159   0.937104   1.165434
    2            -0.000208   0.224273   0.008608   0.218136   0.233298
    3            -0.000208   0.224273   0.008608   0.218136   0.233298
    4            -0.000351   0.184116   0.201435   0.276515   0.008141

                      6          7          8

                  0.029123   0.025947   0.018024

    1             0.013271   0.013545   0.009463
    2             0.007941   0.005505   0.000294
    3             0.007941   0.005505   0.000294
    4            -0.000029   0.001392   0.007974
 WARNING! MCSCF POPULATIONS SHOWN ABOVE ARE FOR THE NATURAL ORBITALS.
 IGNORE THE ABOVE DATA FOR MCSCF FUNCTIONS WHICH ARE NOT OF -FORS- TYPE.
 THE FOLLOWING POPULATIONS ARE CORRECT FOR ANY MCSCF WAVEFUNCTION.

               ----- POPULATIONS IN EACH AO -----
                             MULLIKEN      LOWDIN
              1  N  1  S      2.00242     1.90053
              2  N  1  S      0.81888     0.57729
              3  N  1  S      0.68283     0.40429
              4  N  1  X      0.63312     0.54826
              5  N  1  Y      0.74964     0.69199
              6  N  1  Z      0.85846     0.80665
              7  N  1  X      0.22088     0.36581
              8  N  1  Y      0.42165     0.47251
              9  N  1  Z      0.52140     0.55773
             10  N  1 XX      0.00044     0.19031
             11  N  1 YY      0.00155     0.14851
             12  N  1 ZZ      0.00302     0.14231
             13  N  1 XY      0.00642     0.00977
             14  N  1 XZ      0.00439     0.01409
             15  N  1 YZ      0.00000     0.00603
             16  H  2  S      0.58902     0.44875
             17  H  2  S      0.05317     0.14853
             18  H  2  X      0.02184     0.03766
             19  H  2  Y      0.01865     0.04755
             20  H  2  Z      0.01517     0.03395
             21  H  3  S      0.58902     0.44875
             22  H  3  S      0.05317     0.14853
             23  H  3  X      0.02184     0.03766
             24  H  3  Y      0.01865     0.04755
             25  H  3  Z      0.01517     0.03395
             26  H  4  S      0.59810     0.46487
             27  H  4  S      0.02437     0.14394
             28  H  4  X      0.03730     0.06594
             29  H  4  Y      0.00811     0.02363
             30  H  4  Z      0.01131     0.03265

          ----- MULLIKEN ATOMIC OVERLAP POPULATIONS -----
          (OFF-DIAGONAL ELEMENTS NEED TO BE MULTIPLIED BY 2)

             1           2           3           4

    1    6.0789300
    2    0.2650877   0.4485506
    3    0.2650877  -0.0103881   0.4485506
    4    0.3160087  -0.0054036  -0.0054036   0.3739914

          TOTAL MULLIKEN AND LOWDIN ATOMIC POPULATIONS
       ATOM         MULL.POP.    CHARGE          LOW.POP.     CHARGE
    1 N             6.925114    0.074886         6.836083    0.163917
    2 H             0.697847    0.302153         0.716447    0.283553
    3 H             0.697847    0.302153         0.716447    0.283553
    4 H             0.679193    0.320807         0.731022    0.268978

          MULLIKEN SPHERICAL HARMONIC POPULATIONS
       ATOM           S       P       D      F      G      H      I    TOTAL
    1 N             3.50    3.41    0.02   0.00   0.00   0.00   0.00    6.93
    2 H             0.64    0.06    0.00   0.00   0.00   0.00   0.00    0.70
    3 H             0.64    0.06    0.00   0.00   0.00   0.00   0.00    0.70
    4 H             0.62    0.06    0.00   0.00   0.00   0.00   0.00    0.68

          ---------------------
          ELECTROSTATIC MOMENTS
          ---------------------

 POINT   1           X           Y           Z (BOHR)    CHARGE
                -0.000004   -0.000000   -0.177185        1.00 (A.U.)
         DX          DY          DZ         /D/  (DEBYE)
    -0.703050   -0.000000    2.185650    2.295941
 ...... END OF PROPERTY EVALUATION ......
 CPU     0: STEP CPU TIME=     0.01 TOTAL CPU TIME=         10.0 (      0.2 MIN)
 TOTAL WALL CLOCK TIME=         10.0 SECONDS, CPU UTILIZATION IS    99.90%

     -------------------------------------------------
     GMC-PT/GMC-QDPT or general MCSCF input parameters
     -------------------------------------------------
 # of frozen core orbs. =         0 ->         0
 # of doubly occ. orbs. =         1
 # of active      orbs. =         7
 # of virtual     orbs. =        21
 # of active electrons  =         7
 # of states in CI      =         3
 Highest state in CI    =         3
 kstate =  1 1 1
 avecoe =  0.333 0.333 0.333
 State symmetry           = A           
 Assigned symmetry number = 1

 <<<Act. MO sym.: 1111111

 <<<Division of 1-ext.:  0
 <<<Division of 2-ext.:  0

     ------------------------
     Orbital canonicalization
     ------------------------

 MOs are canonicalized for core, virtual, and invariant-active orbital spaces.
 This is a part of the GMC-QDPT calculation.
 SCHWARZ INEQUALITY OVERHEAD:       465 INTEGRALS, T=        0.00
 DIRECT TRANSFORMATION SKIPS AO INTEGRAL STORAGE ON DISK.

 Averaged energy =     -55.715134118

 State #    1  Energy =     -55.849581833  S =  0.500
 State #    2  Energy =     -55.750209715  S =  0.500
 State #    3  Energy =     -55.545610805  S =  0.500

 Orbital energies for filled orbital space
  -15.986707
 Orbital energies for active orbital space
   -1.509648  -1.018106  -0.802871  -0.744467   0.231574
    0.420849   0.233434
 Orbital energies for external orbital space
    0.120164   0.195004   0.241720   0.527815   0.568110
    0.636388   0.851709   1.021197   1.110898   1.260988
    1.319372   1.484476   1.610997   1.856855   1.889037
    2.006077   2.070904   2.190829   2.648606   2.799343
    2.806703

 Zero values mean non-canonical orbitals.
 ... done with orbital canonicalization ...
 CPU     0: STEP CPU TIME=     0.54 TOTAL CPU TIME=         10.6 (      0.2 MIN)
 TOTAL WALL CLOCK TIME=         10.6 SECONDS, CPU UTILIZATION IS    99.81%

     --------------------------------------------
     PARTIAL TWO ELECTRON INTEGRAL TRANSFORMATION
     --------------------------------------------

 NUMBER OF CORE MOLECULAR ORBITALS     =    0
 NUMBER OF OCCUPIED MOLECULAR ORBITALS =    8
 TOTAL NUMBER OF MOLECULAR ORBITALS    =   29
 TOTAL NUMBER OF ATOMIC ORBITALS       =   30
 THRESHOLD FOR KEEPING TRANSFORMED 2E- INTEGRALS = 1.000E-09
 AO INTEGRALS WILL BE CALCULATED IN DIRECT MODE...
 DIRECT TRANSFORMATION SKIPS AO INTEGRAL STORAGE ON DISK.
 SCHWARZ INEQUALITY OVERHEAD:       465 INTEGRALS, T=        0.00

 PLAN A: REQUIREMENTS FOR FULLY IN-MEMORY TRANSFORMATION:
 # OF WORDS AVAILABLE =            100000000
 # OF WORDS NEEDED    =               221798

 PARALLEL ONLY WORKS WITH THE SEGMENTED ALGORITHM.
 ADJUSTING MEMORY TO USE SEGMENTED ALGORITHM.


 PLAN B: REQUIREMENTS FOR THE SEGMENTED TRANSFORMATION:
       MINIMUM=         124148 WORDS FOR 1 MOLECULAR ORBITAL PER PASS
       MAXIMUM=         221798 WORDS FOR ALL MOLECULAR ORBITALS IN 1 PASS
              (          13950 EXTRA WORDS INCLUDES 1 EXTRA ORBITAL/PASS)
 THIS RUN USES=         221798 WORDS,
 DISTRIBUTING   1 PASSES EACH CONTAINING     8 ORBITALS OVER   1 PROCESSORS.

 CHOOSING SEGMENTED PARTIAL TRANSFORMATION...
 DIRECT TRANSFORMATION SKIPS AO INTEGRAL STORAGE ON DISK.
 PASS #   1 TOOK        0.04 SECONDS.
 TOTAL NUMBER OF TRANSFORMED 2E- INTEGRALS KEPT =        22317
 ... END OF INTEGRAL TRANSFORMATION ...
 CPU     0: STEP CPU TIME=     0.05 TOTAL CPU TIME=         10.6 (      0.2 MIN)
 TOTAL WALL CLOCK TIME=         10.6 SECONDS, CPU UTILIZATION IS    99.91%

     --------     ------------------------------------------
     GMC-QDPT     Program written by H.Nakano (Kyushu Univ.)
     --------     ------------------------------------------

 *** Reference space

 Reference type: ORMAS (= Occupation restricted multiple active space)
 # of orbitals          =  7
 # of minimum electrons =  7
 # of maximum electrons =  7
 State symmetry    =    1 (input)
 2*Sz              =    1 (input)
 Spin multiplicity =    2 (input)
 Dimension of reference space =      1225  (from      3432 walks)

 Dimension of reference space =      1225  (from      1225 walks)

 <<<Ionized spaces for Ref-CI:
      0:         1225 /   -1-0:         1960 /  0-1-0:         2891

 ***                    ***
 *** Reference space CI ***
 ***                    ***

 Converged after   26 iterations

 Reference wavefunctions:

 State #    1  Energy =     -55.849581833  S =  0.500

      Det      Coef    Occupancy (Ignoring core)
      ---      ----    --------- --------- -----
        1   -0.976614  11110001110000
      393   -0.059484  10110101010010
      717   -0.089481  11010011100001

 State #    2  Energy =     -55.750209715  S =  0.500

      Det      Coef    Occupancy (Ignoring core)
      ---      ----    --------- --------- -----
       36   -0.983093  11110001101000
      463   -0.059088  10110101001010

 State #    3  Energy =     -55.545610805  S =  0.500

      Det      Coef    Occupancy (Ignoring core)
      ---      ----    --------- --------- -----
       71   -0.976217  11110001011000
      122   -0.051620  11010010111000
      822    0.091187  11010011001001

 Davidson method: CPU/Wall time =           0.42 /           0.42 sec.

 Oscillator strength (invalid if E(1)/=E(GS)):
 -----------------------------------------
   State                        f
 -----------------------------------------
     2     F(REF-CI)=        0.0002296208
     3     F(REF-CI)=        0.0039073889
 -----------------------------------------

 Dipole moment matrix elements, x, y, z, in A.U.

 Dimension of ionized spaces for PT:
 (N-2) space:         1715 /  (N-1) space:         2842 /  N space:         2891
 (N+1) space:         2842 /  (N+2) space:         1715

 <<<Ionized spaces for internal:
         0:         1225 /      -1-0:         1960 /     0-1-0:         2891
  -1-0-1-0:         2842 / 0-1-0-1-0:         3381

 Diagonal elements of averaged one-particle density matrix:
       2       3       4       5       6       7       8
  0.9931  0.9880  0.9844  0.9921  0.0146  0.0106  0.0173
  0.9879  0.6626  0.6556  0.6630  0.0114  0.0076  0.0119

 Orbital energies:
 -------- Doubly-occupied orbitals (highest several orbs.) -------
             1
 -1.598671D+01
 -------- Active orbitals ----------------------------------------
             2            3            4            5            6
 -1.509648D+00-1.018106D+00-8.028711D-01-7.444673D-01 2.315738D-01
             7            8
  4.208494D-01 2.334345D-01
 -------- External orbitals (lowest several orbs.) ---------------
             9           10           11           12           13
  1.201636D-01 1.950042D-01 2.417205D-01 5.278147D-01 5.681100D-01
            14           15           16           17           18
  6.363876D-01 8.517090D-01 1.021197D+00 1.110898D+00 1.260988D+00

 *** Quasi-degeneracy checking

 === Det (|Ci| > 1.0D-01 and dE < 5.0D-03)

 # of small denominators (single excitations)
 State       dEmin  dE < 5.0D-03  dE < 5.0D-04  dE < 5.0D-05  dE < 5.0D-06
 ----- ----------- ------------- ------------- ------------- -------------
     1    5.00D-03             0             0             0             0
     2    5.00D-03             0             0             0             0
     3    5.00D-03             0             0             0             0

 # of small denominators (double excitations)
 State       dEmin  dE < 5.0D-03  dE < 5.0D-04  dE < 5.0D-05  dE < 5.0D-06
 ----- ----------- ------------- ------------- ------------- -------------
     1    5.00D-03             0             0             0             0
     2    5.00D-03             0             0             0             0
     3    5.00D-03             0             0             0             0

 *** Zeroth-Order Setup (Granovsky's zeroth-order vectors)
 Zeroth-order effective Hamiltonian
  (= Sum_i e(i)*<I|a+(i)a(i)|J> ):
                   1            2            3
     1 -7.299342D+00
     2  3.844243D-10-7.264674D+00
     3 -1.031743D-03-3.530144D-09-7.033756D+00

 Zeroth-order vectors:
 State #    1
       MC st            1           3           2
       Coeff   -1.000D+00  -3.885D-03   1.069D-08
 State #    2
       MC st            2           3           1
       Coeff   -1.000D+00  -1.533D-08  -1.063D-08
 State #    3
       MC st            3           1           2
       Coeff    1.000D+00  -3.885D-03  -1.529D-08

 *** GMC-QDPT computation

 (Integral reading:  CPU/Wall time =           0.01 /           0.00 sec.)

 One-external:
   0 -ionized terms: CPU/Wall time =           0.03 /           0.03 sec.
 (-1)-ionized terms: CPU/Wall time =           0.09 /           0.10 sec.
 (+1)-ionized terms: CPU/Wall time =           0.03 /           0.02 sec.
 (+1)-ionized terms: CPU/Wall time =           0.00 /           0.01 sec.
 (+2)-ionized terms: CPU/Wall time =           0.01 /           0.00 sec.

 Internal:
 # of macro loops for internal contribution =         1 (input)
 Loop:    1
 Dimension of internal CISD space     =         0  (after screening)
 Space construction: CPU/Wall time =           0.01 /           0.02 sec.
 Internal terms:     CPU/Wall time =           0.00 /           0.00 sec.

 Two-external:
   0 -ionized terms: CPU/Wall time =           0.03 /           0.02 sec.
 (-1)-ionized terms: CPU/Wall time =           0.33 /           0.34 sec.
 (-2)-ionized terms: CPU/Wall time =           0.18 /           0.18 sec.

 Total time:         CPU/Wall time =           0.71 /           0.72 sec.

 ***                  ***
 *** GMC-QDPT Results ***
 ***                  ***

 Diagonal elements of effective Hamiltonian:
 Heff(  1) =   -55.94827705
 Heff(  2) =   -55.85784959
 Heff(  3) =   -55.65719219

 Off-diagonal elements of effective Hamiltonian:
                   1            2
     2 -8.147772D-10
     3 -7.068679D-04-3.173118D-09

 ******** GMC-QDPT energies ********
 ----------------------------------------------------------------------------
   State                        1st order                           2nd order
 ----------------------------------------------------------------------------
     1     E(REF-CI)=      -55.8495818331   E(GMC-QDPT2)=      -55.9482787650
     2     E(REF-CI)=      -55.7502097149   E(GMC-QDPT2)=      -55.8578495856
     3     E(REF-CI)=      -55.5456108054   E(GMC-QDPT2)=      -55.6571904707
 ----------------------------------------------------------------------------

 Excitation energies (invalid if E(1)/=E(GS)):
 ----------------------------------------------------------------------------
   State                        1st order                           2nd order
 ----------------------------------------------------------------------------

     TZ Sorted GMC-PT ENERGIES:
         1      -55.9482787650
         2      -55.8578495856
         3      -55.6571904707
     2     E(REF-CI)=        2.7040545 eV   E(GMC-QDPT2)=        2.4607046 eV
     3     E(REF-CI)=        8.2714772 eV   E(GMC-QDPT2)=        7.9209200 eV
 ----------------------------------------------------------------------------

 Main characters of perturbed GMC-QDPT states:

 State #    1  Energy =     -55.948278765  S =  0.500

      Det      Coef    Occupancy (Ignoring core)
      ---      ----    --------- --------- -----
        1   -0.976608  11110001110000
      393   -0.059455  10110101010010
      717   -0.089478  11010011100001

 State #    2  Energy =     -55.857849586  S =  0.500

      Det      Coef    Occupancy (Ignoring core)
      ---      ----    --------- --------- -----
       36   -0.983093  11110001101000
      463   -0.059088  10110101001010

 State #    3  Energy =     -55.657190471  S =  0.500

      Det      Coef    Occupancy (Ignoring core)
      ---      ----    --------- --------- -----
       71   -0.976210  11110001011000
      122   -0.051652  11010010111000
      822    0.091188  11010011001001

 <<<Max |V/de| = 2.998D-02  Thresh = 1.000D+00

 Oscillator strength (invalid if E(1)/=E(GS)):
 ----------------------------------------------------------------------------
   State                        1st order                           2nd order
 ----------------------------------------------------------------------------
     2     F(REF-CI)=        0.0002296208     F(GMC-PT2)=        0.0002103032
     3     F(REF-CI)=        0.0039073889     F(GMC-PT2)=        0.0037821070
 ----------------------------------------------------------------------------

 Dipole moment matrix elements, x, y, z, in A.U.
States    1    1       -0.3213608226       -0.0000000044        0.7297138202
States    1    2       -0.0000000013       -0.0590628371        0.0000000168
States    1    3       -0.1173060102        0.0000000025       -0.0756887261
States    2    1       -0.0000000013       -0.0590628371        0.0000000168
States    2    2       -0.1203915636       -0.0000000111        0.2654341805
States    2    3        0.0000000126       -0.1300506967        0.0000000001
States    3    1       -0.1173060102        0.0000000025       -0.0756887261
States    3    2        0.0000000126       -0.1300506967        0.0000000001
States    3    3       -0.6132320704       -0.0000000144        0.2372137311

 Oscillator strength (valid only when positive): 
 ----------------------------------------------------------------------------
  States                        1st order                           2nd order
 ----------------------------------------------------------------------------
  1  1     F(REF-CI)=        0.0000000000     F(GMC-PT2)=        0.0000000000
  1  2     F(REF-CI)=       -0.0002296208     F(GMC-PT2)=       -0.0002103032
  1  3     F(REF-CI)=       -0.0039073889     F(GMC-PT2)=       -0.0037821070
  2  1     F(REF-CI)=        0.0002296208     F(GMC-PT2)=        0.0002103032
  2  2     F(REF-CI)=        0.0000000000     F(GMC-PT2)=        0.0000000000
  2  3     F(REF-CI)=       -0.0023099937     F(GMC-PT2)=       -0.0022625230
  3  1     F(REF-CI)=        0.0039073889     F(GMC-PT2)=        0.0037821070
  3  2     F(REF-CI)=        0.0023099937     F(GMC-PT2)=        0.0022625230
  3  3     F(REF-CI)=        0.0000000000     F(GMC-PT2)=        0.0000000000
 CPU     0: STEP CPU TIME=     1.20 TOTAL CPU TIME=         11.8 (      0.2 MIN)
 TOTAL WALL CLOCK TIME=         11.8 SECONDS, CPU UTILIZATION IS    99.92%

     !!! DIABATIZATION FOR REF CI STATES !!!

 *******************************************************
          $DMO GROUP FOUND IN THE INPUT.
        DIABATIZATION OF ADIABATIC STATES BEGINS.
     PROGRAMMED BY TAO ZENG (CARLETON UNIVERSITY).
               Email: toby.zeng@carleton.ca
     See T. Zeng, J. Chem. Phys. 2017, 146, 144103
 *******************************************************

 *************************************************************************
     STEP 1: TRANSFORMATION OF ADIABATIC STATES TO THE DMO REPRESENTATION
         See Atchity and Ruedenberg, J. Chem. Phys. 1999, 111, 2910
 *************************************************************************

Read in Diabatic Molecualr Orbitals:

                      1          2          3          4          5

    1  N  1  S    0.008609   0.000000   0.000000  -0.013219   0.279491
    2  N  1  S    0.442914  -0.000000   0.000000  -0.184329   0.867803
    3  N  1  S    0.276913   0.000000  -0.000000  -0.288315   0.144236
    4  N  1  X   -0.000000   0.493155  -0.024636  -0.000000  -0.000000
    5  N  1  Y    0.000000   0.024636   0.493155  -0.000000   0.000000
    6  N  1  Z    0.090197   0.000000   0.000000   0.593421   0.705309
    7  N  1  X   -0.000000   0.210628  -0.010522   0.000000   0.000000
    8  N  1  Y    0.000000   0.010522   0.210628  -0.000000  -0.000000
    9  N  1  Z   -0.004381   0.000000   0.000000   0.381592  -0.106092
   10  N  1 XX   -0.000457   0.010719  -0.000535  -0.012387   0.006153
   11  N  1 YY   -0.000457  -0.010719   0.000535  -0.012387   0.006153
   12  N  1 ZZ    0.000914  -0.000000   0.000000   0.024773  -0.012306
   13  N  1 XY    0.000000  -0.000618  -0.012377  -0.000000   0.000000
   14  N  1 XZ   -0.000000   0.026529  -0.001325  -0.000000   0.000000
   15  N  1 YZ    0.000000   0.001325   0.026529  -0.000000   0.000000
   16  H  2  S    0.194462  -0.176074   0.343485   0.112865  -0.523343
   17  H  2  S    0.003574  -0.023812   0.046452   0.024014  -0.054445
   18  H  2  X    0.018760   0.009101   0.022834   0.009336  -0.039151
   19  H  2  Y   -0.032493   0.022287  -0.020044  -0.016171   0.067811
   20  H  2  Z   -0.009251   0.008464  -0.016511   0.018769  -0.010566
   21  H  3  S    0.194462  -0.209430  -0.324227   0.112865  -0.523343
   22  H  3  S    0.003574  -0.028322  -0.043847   0.024014  -0.054445
   23  H  3  X    0.018760   0.006781  -0.023627   0.009336  -0.039151
   24  H  3  Y    0.032493  -0.024174  -0.017723   0.016171  -0.067811
   25  H  3  Z   -0.009251   0.010067   0.015585   0.018769  -0.010566
   26  H  4  S    0.194462   0.385503  -0.019258   0.112865  -0.523343
   27  H  4  S    0.003574   0.052134  -0.002604   0.024014  -0.054445
   28  H  4  X   -0.037519  -0.032295   0.001613  -0.018672   0.078302
   29  H  4  Y    0.000000   0.001067   0.021353  -0.000000   0.000000
   30  H  4  Z   -0.009251  -0.018530   0.000926   0.018769  -0.010566

                      6          7

    1  N  1  S    0.000000  -0.000000
    2  N  1  S    0.000000  -0.000000
    3  N  1  S   -0.000000   0.000000
    4  N  1  X   -0.930415  -0.002083
    5  N  1  Y   -0.002083   0.930415
    6  N  1  Z   -0.000000   0.000000
    7  N  1  X   -0.046866  -0.000105
    8  N  1  Y   -0.000105   0.046866
    9  N  1  Z   -0.000000   0.000000
   10  N  1 XX    0.001538   0.000003
   11  N  1 YY   -0.001538  -0.000003
   12  N  1 ZZ   -0.000000   0.000000
   13  N  1 XY   -0.000004   0.001776
   14  N  1 XZ    0.039985   0.000090
   15  N  1 YZ    0.000090  -0.039985
   16  H  2  S   -0.362630  -0.631354
   17  H  2  S   -0.065964  -0.114846
   18  H  2  X    0.002763  -0.037520
   19  H  2  Y    0.037435   0.040736
   20  H  2  Z    0.001882   0.003276
   21  H  3  S   -0.365454   0.629724
   22  H  3  S   -0.066477   0.114549
   23  H  3  X    0.002595   0.037532
   24  H  3  Y   -0.037617   0.040567
   25  H  3  Z    0.001896  -0.003268
   26  H  4  S    0.728084   0.001630
   27  H  4  S    0.132441   0.000297
   28  H  4  X   -0.062317  -0.000140
   29  H  4  Y    0.000055  -0.024345
   30  H  4  Z   -0.003778  -0.000008

NUMBER OF SUB ACTIVE SPACES:   1
ROTATE ACTIVE MOS TO DMOS IN EACH SUB-SPACE

SPACE  1:

OVERLAP BETWEEN ORTHONORMAL AND PRE-ORTHONORMAL REF. DMOS

             1           2           3           4           5

    1    0.9846262  -0.0169310   0.0008458  -0.0057190  -0.0038364
    2   -0.0169310   1.0473451  -0.0079019  -0.0345754   0.0750934
    3    0.0008458  -0.0079019   0.8895612   0.0017272  -0.0037513
    4   -0.0057190  -0.0345754   0.0017272   0.9952570  -0.0068078
    5   -0.0038364   0.0750934  -0.0037513  -0.0068078   1.1141230
    6    0.0035156   0.0571071  -0.0030451  -0.0514349   0.0608248
    7    0.0000079   0.0044075   0.0856626  -0.0001152   0.0001362

             6           7

    1    0.0035156   0.0000079
    2    0.0571071   0.0044075
    3   -0.0030451   0.0856626
    4   -0.0514349  -0.0001152
    5    0.0608248   0.0001362
    6    1.0194897  -0.0000562
    7   -0.0000562   1.0445996
REFERENCE DMOS AFTER ORTHONORMALIZATION:

                      1          2          3          4          5

    1  N  1  S    0.009403  -0.017587   0.000879  -0.012875   0.252811
    2  N  1  S    0.451133  -0.052054   0.002600  -0.181880   0.785857
    3  N  1  S    0.279922  -0.013149   0.000657  -0.288812   0.130783
    4  N  1  X    0.012225   0.520193  -0.025986  -0.030508   0.016265
    5  N  1  Y    0.000000   0.023607   0.472553  -0.000000  -0.000000
    6  N  1  Z    0.097190  -0.024060   0.001202   0.599988   0.639062
    7  N  1  X    0.003720   0.205085  -0.010245   0.004163  -0.010726
    8  N  1  Y    0.000000   0.011710   0.234416   0.000000  -0.000000
    9  N  1  Z   -0.002360   0.018181  -0.000908   0.384622  -0.095426
   10  N  1 XX   -0.000352   0.009478  -0.000473  -0.012080   0.004803
   11  N  1 YY   -0.000697  -0.011014   0.000550  -0.012889   0.006290
   12  N  1 ZZ    0.001050   0.001536  -0.000077   0.024969  -0.011093
   13  N  1 XY   -0.000000  -0.000709  -0.014196  -0.000000   0.000000
   14  N  1 XZ    0.000272   0.023594  -0.001179   0.002775  -0.003665
   15  N  1 YZ    0.000000   0.001688   0.033792   0.000000  -0.000000
   16  H  2  S    0.195223  -0.106866   0.443520   0.090501  -0.442367
   17  H  2  S    0.003485  -0.014610   0.062730   0.020112  -0.044244
   18  H  2  X    0.019135   0.012030   0.029297   0.009850  -0.035979
   19  H  2  Y   -0.032705   0.014039  -0.025950  -0.013858   0.057892
   20  H  2  Z   -0.009163   0.008980  -0.018991   0.019231  -0.010226
   21  H  3  S    0.195223  -0.150537  -0.430661   0.090501  -0.442367
   22  H  3  S    0.003485  -0.020790  -0.060962   0.020112  -0.044244
   23  H  3  X    0.019135   0.009051  -0.030350   0.009850  -0.035979
   24  H  3  Y    0.032705  -0.016556  -0.024422   0.013858  -0.057892
   25  H  3  Z   -0.009163   0.010828   0.018002   0.019231  -0.010226
   26  H  4  S    0.200206   0.374814  -0.018724   0.161810  -0.533368
   27  H  4  S    0.003940   0.047908  -0.002393   0.032256  -0.059120
   28  H  4  X   -0.038300  -0.034107   0.001704  -0.022997   0.075849
   29  H  4  Y    0.000000   0.001322   0.026470   0.000000  -0.000000
   30  H  4  Z   -0.009603  -0.016582   0.000828   0.018101  -0.008213

                      6          7

    1  N  1  S   -0.014777  -0.000033
    2  N  1  S   -0.054694  -0.000122
    3  N  1  S   -0.022601  -0.000051
    4  N  1  X   -0.944397  -0.002115
    5  N  1  Y   -0.001908   0.851839
    6  N  1  Z   -0.006841  -0.000015
    7  N  1  X   -0.056651  -0.000127
    8  N  1  Y   -0.000057   0.025592
    9  N  1  Z    0.024085   0.000054
   10  N  1 XX    0.000081   0.000000
   11  N  1 YY   -0.001913  -0.000004
   12  N  1 ZZ    0.001832   0.000004
   13  N  1 XY   -0.000006   0.002867
   14  N  1 XZ    0.038254   0.000086
   15  N  1 YZ    0.000092  -0.041056
   16  H  2  S   -0.318137  -0.640269
   17  H  2  S   -0.060061  -0.115020
   18  H  2  X    0.004700  -0.038365
   19  H  2  Y    0.031817   0.041058
   20  H  2  Z    0.002898   0.004660
   21  H  3  S   -0.321001   0.638838
   22  H  3  S   -0.060575   0.114750
   23  H  3  X    0.004528   0.038386
   24  H  3  Y   -0.032000   0.040915
   25  H  3  Z    0.002919  -0.004646
   26  H  4  S    0.732409   0.001640
   27  H  4  S    0.132359   0.000296
   28  H  4  X   -0.064763  -0.000145
   29  H  4  Y    0.000057  -0.025482
   30  H  4  Z   -0.001338  -0.000003

 -------------------------------------------
       MAXIMIZING MORMO OVERLAP TERM        
 -------------------------------------------
   SWEEP    VALUE       PROGRESS
     0     6.61849
     1     6.96489     0.34640317
     2     6.96525     0.00035476
     3     6.96525     0.00000000
     4     6.96525     0.00000000
 THE ROTATION IS DONE
ACTIVE ORBITALS AFTER MORMO:

                      1          2          3          4          5

    1  N  1  S    0.008105  -0.021472   0.001073  -0.012260   0.213238
    2  N  1  S    0.434840  -0.042019   0.002099  -0.186876   0.734469
    3  N  1  S    0.319464   0.003554  -0.000178  -0.278397   0.192533
    4  N  1  X    0.012432   0.515651  -0.025759  -0.034362   0.027435
    5  N  1  Y    0.000000   0.021524   0.430870  -0.000000   0.000000
    6  N  1  Z    0.087245  -0.037898   0.001893   0.601129   0.612816
    7  N  1  X    0.005782   0.167438  -0.008364   0.040763  -0.038628
    8  N  1  Y    0.000000   0.015552   0.311314  -0.000000   0.000000
    9  N  1  Z    0.018968   0.049647  -0.002480   0.384188  -0.060789
   10  N  1 XX    0.004232   0.008886  -0.000444  -0.012653  -0.045569
   11  N  1 YY   -0.004635  -0.009680   0.000484  -0.009617   0.041517
   12  N  1 ZZ    0.000402   0.000795  -0.000040   0.022271   0.004053
   13  N  1 XY   -0.000000  -0.000917  -0.018350   0.000000  -0.000000
   14  N  1 XZ   -0.002969   0.015504  -0.000774   0.003643   0.030013
   15  N  1 YZ    0.000000   0.001360   0.027221  -0.000000  -0.000000
   16  H  2  S    0.186104  -0.142747   0.373332   0.096351  -0.452306
   17  H  2  S    0.003723  -0.007518   0.124700   0.026388  -0.055347
   18  H  2  X    0.025564  -0.001640   0.033574   0.011621  -0.028793
   19  H  2  Y   -0.020001   0.015995  -0.007343  -0.012016   0.049691
   20  H  2  Z   -0.010229   0.015726  -0.018001   0.017708  -0.013891
   21  H  3  S    0.186104  -0.179243  -0.357247   0.096351  -0.452306
   22  H  3  S    0.003723  -0.019908  -0.123330   0.026388  -0.055347
   23  H  3  X    0.025564  -0.004978  -0.033243   0.011621  -0.028793
   24  H  3  Y    0.020001  -0.016647  -0.005712   0.012016  -0.049691
   25  H  3  Z   -0.010229   0.017441   0.016344   0.017708  -0.013891
   26  H  4  S    0.182608   0.391837  -0.019574   0.132737  -0.528220
   27  H  4  S   -0.001561   0.040948  -0.002046   0.032542  -0.059533
   28  H  4  X   -0.035668  -0.042014   0.002099  -0.014321   0.064857
   29  H  4  Y    0.000000   0.001022   0.020456  -0.000000   0.000000
   30  H  4  Z   -0.003700  -0.011510   0.000575   0.021544  -0.010009

                      6          7

    1  N  1  S   -0.081062  -0.000182
    2  N  1  S   -0.175852  -0.000394
    3  N  1  S    0.142127   0.000318
    4  N  1  X   -0.911674  -0.002042
    5  N  1  Y   -0.001942   0.867375
    6  N  1  Z    0.016722   0.000037
    7  N  1  X   -0.127192  -0.000285
    8  N  1  Y    0.000005  -0.002329
    9  N  1  Z    0.026875   0.000060
   10  N  1 XX   -0.005080  -0.000011
   11  N  1 YY    0.022887   0.000051
   12  N  1 ZZ   -0.017807  -0.000040
   13  N  1 XY   -0.000098   0.043654
   14  N  1 XZ    0.054406   0.000122
   15  N  1 YZ    0.000038  -0.016764
   16  H  2  S   -0.357441  -0.576900
   17  H  2  S   -0.069605  -0.188461
   18  H  2  X    0.006372  -0.045137
   19  H  2  Y    0.040974   0.014572
   20  H  2  Z   -0.012982   0.015551
   21  H  3  S   -0.360021   0.575294
   22  H  3  S   -0.070448   0.188148
   23  H  3  X    0.006170   0.045165
   24  H  3  Y   -0.041038   0.014388
   25  H  3  Z   -0.012912  -0.015609
   26  H  4  S    0.724712   0.001623
   27  H  4  S    0.134292   0.000301
   28  H  4  X   -0.068800  -0.000154
   29  H  4  Y    0.000014  -0.006064
   30  H  4  Z    0.016358   0.000037

Actually Used Diabatic Molecualr Orbitals:

                      1          2          3          4          5

    1  N  1  S    0.008105  -0.021472   0.001073  -0.012260   0.213238
    2  N  1  S    0.434840  -0.042019   0.002099  -0.186876   0.734469
    3  N  1  S    0.319464   0.003554  -0.000178  -0.278397   0.192533
    4  N  1  X    0.012432   0.515651  -0.025759  -0.034362   0.027435
    5  N  1  Y    0.000000   0.021524   0.430870  -0.000000   0.000000
    6  N  1  Z    0.087245  -0.037898   0.001893   0.601129   0.612816
    7  N  1  X    0.005782   0.167438  -0.008364   0.040763  -0.038628
    8  N  1  Y    0.000000   0.015552   0.311314  -0.000000   0.000000
    9  N  1  Z    0.018968   0.049647  -0.002480   0.384188  -0.060789
   10  N  1 XX    0.004232   0.008886  -0.000444  -0.012653  -0.045569
   11  N  1 YY   -0.004635  -0.009680   0.000484  -0.009617   0.041517
   12  N  1 ZZ    0.000402   0.000795  -0.000040   0.022271   0.004053
   13  N  1 XY   -0.000000  -0.000917  -0.018350   0.000000  -0.000000
   14  N  1 XZ   -0.002969   0.015504  -0.000774   0.003643   0.030013
   15  N  1 YZ    0.000000   0.001360   0.027221  -0.000000  -0.000000
   16  H  2  S    0.186104  -0.142747   0.373332   0.096351  -0.452306
   17  H  2  S    0.003723  -0.007518   0.124700   0.026388  -0.055347
   18  H  2  X    0.025564  -0.001640   0.033574   0.011621  -0.028793
   19  H  2  Y   -0.020001   0.015995  -0.007343  -0.012016   0.049691
   20  H  2  Z   -0.010229   0.015726  -0.018001   0.017708  -0.013891
   21  H  3  S    0.186104  -0.179243  -0.357247   0.096351  -0.452306
[...]
      288   -0.023676   -0.023676  +-+2-+0
      460   -0.023555   -0.023555  -++2+-0
      823    0.023314   -0.023314  20+2002
       39   -0.023025   -0.023025  2-+2+00
      843   -0.022813   -0.022813  +202+0-
       64    0.022396   -0.022396  2-020++
      498   -0.021485    0.021485  +-+2020
      464    0.021184    0.021184  -++2020
      859    0.020443   -0.020443  02+2002
      457   -0.020324    0.020324  2++-+-0

 ---------------------------------------
    -DIABATIC STATES IN PROTOTYPES-     
 ---------------------------------------

     STATE:    1
 Group Ref#    Coefficients
     1    1    0.961305
     2    2    0.002363
     3    3   -0.000074

WEIGHT OF LISTED PROTOTYPES:   92.41%

     STATE:    2
 Group Ref#    Coefficients
     1    1    0.002363
     2    2    0.960105
     3    3   -0.000316

WEIGHT OF LISTED PROTOTYPES:   92.18%

     STATE:    3
 Group Ref#    Coefficients
     1    1   -0.000074
     2    2   -0.000316
     3    3    0.961877

WEIGHT OF LISTED PROTOTYPES:   92.52%

 --------------------------------------------------
 IN DIRECT MAX. DIABATIZATION FOR GMC-QDPT

 DIRECT MAXIMIZATION (DM) WITHOUT TRUNCATING ADIABATS
 EXPANSIONS INTO THE REFERENCE CONFIGURATION SPACE
 --------------------------------------------------

 -------------------------------------------
 - DM DIABT PT HAMILTONIAN MATRIX ELEMENTS -
 -------------------------------------------
                                            
 --- DIABATIC ENERGIES (DIAGONAL ELEMENT) ---       HARTREE            EV
 STATE #  1'S GMC-PT-LEVEL DIABATIC ENERGY=     -55.941164932       0.000000000
 STATE #  2'S GMC-PT-LEVEL DIABATIC ENERGY=     -55.664304939       7.533744127
 STATE #  3'S GMC-PT-LEVEL DIABATIC ENERGY=     -55.857848951       2.267143324

 --- DIABATIC COUPLINGS (OFF DIAGONAL ELEMENTS)---  HATREE            EV
 STATE #  1 &  2'S GMC-PT-LEVEL COUPLING  =       0.044945947       1.223041516
 STATE #  1 &  3'S GMC-PT-LEVEL COUPLING  =      -0.000092546      -0.002518317
 STATE #  2 &  3'S GMC-PT-LEVEL COUPLING  =      -0.000350955      -0.009549967

 ---------------------------------------
     - ROTATION TO DIABATIC STATES -    
 ---------------------------------------
 ROWS=ADIABATIC, COLUMNS=DIABATIC STATES

             1           2           3

    1    0.9877050  -0.1563285   0.0004041
    2   -0.0001178   0.0018407   0.9999983
    3   -0.1563290  -0.9877034   0.0017996

 ---------------------------------------
          - DIABATIC STATES -           
 ---------------------------------------

 State #    1  Energy =     -55.941164932

      Det      Coef        Coefp    Occupancy (Ignoring core)
      ---      ----        ----    --------- --------- -----
        1    0.942072   -0.942072  222+000
       17    0.162688    0.162688  22-+00+
      701   -0.129961   -0.129961  22++00-
        4    0.104051   -0.104051  2-2++00
      176   -0.101035    0.101035  2+2+-00
      717   -0.069029   -0.069029  220+002
        6   -0.066676    0.066676  22200+0
      393   -0.059981   -0.059981  202+020
      402    0.046491   -0.046491  2+-+0-+
      708    0.042074   -0.042074  2-++0+-
      215   -0.037872   -0.037872  022+200
      192    0.036230   -0.036230  2+-+-0+
      227   -0.035892   -0.035892  +2-+-0+
      705   -0.034880   -0.034880  -2+++0-
      704    0.034475   -0.034475  2-+++0-
      386   -0.034408    0.034408  2+2+0-0
      390    0.033446   -0.033446  -+2++-0
      218    0.033093   -0.033093  +-2+-+0
       51   -0.032727    0.032727  22+-00+
      212    0.030055    0.030055  +220200
       23   -0.029578   -0.029578  2--++0+
      122    0.029330    0.029330  +2-200+
      702    0.027040    0.027040  22+0+0-
      143   -0.026790   -0.026790  220+200
      706    0.026363    0.026363  22+00+-
     1051   -0.026014   -0.026014  2+++0--
      773    0.025613   -0.025613  +2-++0-
      911   -0.025544   -0.025544  2+++-0-
      159    0.025028   -0.025028  -2++-0+
      424   -0.023829   -0.023829  +-2++-0
       29   -0.023065   -0.023065  2--+0++
       76    0.023032    0.023032  2+2-0+0
      184   -0.022499   -0.022499  -+2+-+0
      113   -0.022426    0.022426  +-220+0
      387   -0.021832    0.021832  2+20+-0
       26   -0.021259   -0.021259  22-00++
      179   -0.021214   -0.021214  202+200
      368   -0.020238   -0.020238  2-++0-+

 State #    2  Energy =     -55.664304939

      Det      Coef        Coefp    Occupancy (Ignoring core)
      ---      ----        ----    --------- --------- -----
       71   -0.947358    0.947358  2+22000
      806   -0.132529   -0.132529  2++200-
       87    0.118201   -0.118201  2+-200+
       74   -0.075529    0.075529  2022+00
      822    0.074512   -0.074512  2+02002
       78   -0.071524    0.071524  20220+0
      386    0.067650   -0.067650  2+2+0-0
       76   -0.062797   -0.062797  2+2-0+0
      813    0.051200   -0.051200  20+20+-
      122    0.049059    0.049059  +2-200+
      106   -0.049024   -0.049024  +222000
       36    0.045583    0.045583  22+2000
      111    0.042483   -0.042483  +22-0+0
      332   -0.039401    0.039401  ++-2-0+
      320    0.038830    0.038830  0+22200
      810   -0.038207   -0.038207  -++2+0-
       38   -0.035436    0.035436  2202+00
       99   -0.034442    0.034442  20-20++
      807   -0.033624    0.033624  2++-+0-
      317    0.033369   -0.033369  ++2-200
       72   -0.033019   -0.033019  2+2-+00
      248    0.032349   -0.032349  2+02200
      180   -0.032130    0.032130  -+2+200
      192   -0.031876    0.031876  2+-+-0+
      177    0.030994   -0.030994  2+20200
      323   -0.030876    0.030876  +022-+0
      809    0.029875   -0.029875  20+2+0-
      841   -0.028428    0.028428  +2+200-
       51    0.027467   -0.027467  22+-00+
      264    0.027425   -0.027425  -++2-0+
        6    0.026935   -0.026935  22200+0
       90    0.026546    0.026546  2+--+0+
      811   -0.026304    0.026304  2++-0+-
      878    0.026274    0.026274  ++-2+0-
      109   -0.025215    0.025215  +-22+00
      402   -0.024504    0.024504  2+-+0-+
        4    0.022601   -0.022601  2-2++00
      316    0.021600    0.021600  ++22-00
      421   -0.021440   -0.021440  +22+0-0
      183   -0.021385    0.021385  202+-+0
      911    0.021270    0.021270  2+++-0-
      391    0.021157   -0.021157  2+20020
        9   -0.021042   -0.021042  -22+0+0
       54   -0.020631    0.020631  -2+200+
       79   -0.020576   -0.020576  -+220+0
       17   -0.020504   -0.020504  22-+00+

 State #    3  Energy =     -55.857848951

      Det      Coef        Coefp    Occupancy (Ignoring core)
      ---      ----        ----    --------- --------- -----
       36   -0.944525   -0.944525  22+2000
       39   -0.135826   -0.135826  2-+2+00
      246    0.117195    0.117195  2++2-00
       52   -0.115380    0.115380  220200+
       41   -0.099292    0.099292  22+-0+0
      351    0.091980    0.091980  22++0-0
      463    0.056674   -0.056674  20+2020
      456    0.050568    0.050568  2++20-0
      472   -0.050101   -0.050101  2+020-+
       43   -0.047405   -0.047405  2-+20+0
       71   -0.045436    0.045436  2+22000
      285    0.037596   -0.037596  02+2200
      262   -0.036905   -0.036905  2+02-0+
      297    0.036320   -0.036320  +202-0+
      157    0.035121   -0.035121  220+-0+
       64    0.034078   -0.034078  2-020++
      460   -0.033367   -0.033367  -++2+-0
       37   -0.033043    0.033043  22+-+00
      288   -0.032225   -0.032225  +-+2-+0
       58    0.032101   -0.032101  2-02+0+
      367    0.032066   -0.032066  220+0-+
      145   -0.031882   -0.031882  -2++200
      121   -0.031243    0.031243  +22-00+
      142    0.031177    0.031177  22+0200
      282    0.031141    0.031141  +2+-200
       55   -0.030041   -0.030041  220-+0+
      123    0.028800   -0.028800  +-2200+
       61   -0.025961   -0.025961  220-0++
      716    0.024454    0.024454  22+0002
      843   -0.023980   -0.023980  +202+0-
      494    0.023107   -0.023107  +-+2+-0
      491    0.022638   -0.022638  +2+20-0
      457   -0.021764    0.021764  2++-+-0
      148   -0.021688   -0.021688  2-++-+0
      141    0.021507    0.021507  22++-00
      254    0.021230   -0.021230  -++2-+0
      859    0.020632   -0.020632  02+2002
       16   -0.020551    0.020551  222000+

 ---------------------------------------
      - DIABATIC STATES IN CMO -        
 ---------------------------------------

 State #    1  Energy =     -55.941164932

      Det      Coef        Coefp    Occupancy (Ignoring core)
      ---      ----        ----    --------- --------- -----
        1    0.965319   -0.965319  222+000
       71   -0.147446    0.147446  2+22000
      717   -0.088729   -0.088729  220+002
      393   -0.061828   -0.061828  202+020
       17    0.040460    0.040460  22-+00+
        8   -0.038479    0.038479  2-2+0+0
      215   -0.037680   -0.037680  022+200
      705   -0.036720   -0.036720  -2+++0-
      227   -0.035396   -0.035396  +2-+-0+
      704    0.035383   -0.035383  2-+++0-
      106   -0.033991   -0.033991  +222000
       51   -0.032906    0.032906  22+-00+
      708    0.032560   -0.032560  2-++0+-
      402    0.031103   -0.031103  2+-+0-+
        2    0.030661   -0.030661  2220+00
      179   -0.030571   -0.030571  202+200
      122    0.030166    0.030166  +2-200+
      143   -0.028895   -0.028895  220+200
      192    0.028571   -0.028571  2+-+-0+
      702    0.028298    0.028298  22+0+0-
      773    0.025636   -0.025636  +2-++0-
      390    0.025566   -0.025566  -+2++-0
      212    0.025397    0.025397  +220200
      159    0.024418   -0.024418  -2++-0+
      218    0.024028   -0.024028  +-2+-+0
      391    0.022631   -0.022631  2+20020
       76    0.022292    0.022292  2+2-0+0
      428    0.021921    0.021921  +-2+020
        4   -0.021708    0.021708  2-2++00
      113   -0.021031    0.021031  +-220+0
      394   -0.020991    0.020991  -+2+020

 State #    2  Energy =     -55.664304939

      Det      Coef        Coefp    Occupancy (Ignoring core)
      ---      ----        ----    --------- --------- -----
       71   -0.965023    0.965023  2+22000
        1   -0.148130    0.148130  222+000
      822    0.089903   -0.089903  2+02002
      122    0.047521    0.047521  +2-200+
      111    0.040512   -0.040512  +22-0+0
       38   -0.039515    0.039515  2202+00
      320    0.038399    0.038399  0+22200
      810   -0.037098   -0.037098  -++2+0-
      332   -0.035538    0.035538  ++-2-0+
      177    0.034466   -0.034466  2+20200
      809    0.034172   -0.034172  20+2+0-
      813    0.032972   -0.032972  20+20+-
      192   -0.032499    0.032499  2+-+-0+
      109   -0.030964    0.030964  +-22+00
      107    0.030396   -0.030396  +22-+00
      248    0.029693   -0.029693  2+02200
      807   -0.028077    0.028077  2++-+0-
      180   -0.028050    0.028050  -+2+200
       76    0.027437    0.027437  2+2-0+0
       51    0.026691   -0.026691  22+-00+
      391    0.025943   -0.025943  2+20020
      878    0.025285    0.025285  ++-2+0-
       17   -0.025066   -0.025066  22-+00+
       78   -0.024897    0.024897  20220+0
      264    0.024879   -0.024879  -++2-0+
      317    0.024709   -0.024709  ++2-200
       54   -0.024418    0.024418  -2+200+
      421   -0.024108   -0.024108  +22+0-0
        4    0.023983   -0.023983  2-2++00
      841   -0.023103    0.023103  +2+200-
      911    0.022700    0.022700  2+++-0-
      323   -0.022694    0.022694  +022-+0
       90    0.020831    0.020831  2+--+0+
       99   -0.020297    0.020297  20-20++

 State #    3  Energy =     -55.857848951

      Det      Coef        Coefp    Occupancy (Ignoring core)
      ---      ----        ----    --------- --------- -----
       36   -0.983091   -0.983091  22+2000
      463    0.059088   -0.059088  20+2020
      262   -0.039732   -0.039732  2+02-0+
      285    0.036904   -0.036904  02+2200
      297    0.036761   -0.036761  +202-0+
      249    0.036400   -0.036400  20+2200
      472   -0.035678   -0.035678  2+020-+
      142    0.035656    0.035656  22+0200
      123    0.034148   -0.034148  +-2200+
      157    0.032670   -0.032670  220+-0+
      121   -0.027899    0.027899  +22-00+
       58    0.027468   -0.027468  2-02+0+
      145   -0.025687   -0.025687  -2++200
       55   -0.025502   -0.025502  220-+0+
       16   -0.025406    0.025406  222000+
      282    0.025022    0.025022  +2+-200
      356    0.024468    0.024468  22+0020
      288   -0.023676   -0.023676  +-+2-+0
      460   -0.023555   -0.023555  -++2+-0
      823    0.023314   -0.023314  20+2002
       39   -0.023025   -0.023025  2-+2+00
      843   -0.022813   -0.022813  +202+0-
       64    0.022396   -0.022396  2-020++
      498   -0.021485    0.021485  +-+2020
      464    0.021184    0.021184  -++2020
      859    0.020443   -0.020443  02+2002
      457   -0.020324    0.020324  2++-+-0

 ---------------------------------------
    -DIABATIC STATES IN PROTOTYPES-     
 ---------------------------------------

     STATE:    1
 Group Ref#    Coefficients
     1    1    0.961305
     2    2    0.002362
     3    3   -0.000074

WEIGHT OF LISTED PROTOTYPES:   92.41%

     STATE:    2
 Group Ref#    Coefficients
     1    1    0.002365
     2    2    0.960105
     3    3   -0.000317

WEIGHT OF LISTED PROTOTYPES:   92.18%

     STATE:    3
 Group Ref#    Coefficients
     1    1   -0.000074
     2    2   -0.000316
     3    3    0.961877

WEIGHT OF LISTED PROTOTYPES:   92.52%

     DIRECT MAX. DIABATIZATION FINISHED    
 CPU     0: STEP CPU TIME=     0.24 TOTAL CPU TIME=         12.1 (      0.2 MIN)
 TOTAL WALL CLOCK TIME=         12.1 SECONDS, CPU UTILIZATION IS    99.83%

DIABATS FOR SPIN-ORBIT CALCULATION ARE READY

TRANSITION DIPOLES BETWEEN ADIABATS (in A.U.):

STATE PAIR      X         Y         Z
    1    1 -0.321361 -0.000000  0.729714
    2    1 -0.000000 -0.059063  0.000000
    2    2 -0.120392 -0.000000  0.265434
    3    1 -0.117306  0.000000 -0.075689
    3    2  0.000000 -0.130051  0.000000
    3    3 -0.613232 -0.000000  0.237214


TRANSITION DIPOLES BETWEEN DIABATS (in A.U.):

STATE PAIR      X         Y         Z
    1    1 -0.292268  0.000009  0.741051
    2    1  0.066505 -0.000086 -0.004057
    2    2 -0.642323  0.000507  0.225876
    3    1 -0.000143 -0.038006  0.000064
    3    2  0.000969  0.137684  0.000072
    3    3 -0.120393 -0.000516  0.265434

TRANSITION DIPOLES BETWEEN DIRECT MAX. DIABATS (in A.U.):

STATE PAIR      X         Y         Z
    1    1 -0.292268  0.000009  0.741051
    2    1  0.066505 -0.000086 -0.004056
    2    2 -0.642323  0.000507  0.225876
    3    1 -0.000143 -0.038006  0.000064
    3    2  0.000969  0.137684  0.000072
    3    3 -0.120393 -0.000516  0.265434
 No $TRANST Group Found.
 Quit without doing spin-orbit coupling
 ..... DONE WITH MP2 ENERGY .....
 CPU     0: STEP CPU TIME=     0.01 TOTAL CPU TIME=         12.1 (      0.2 MIN)
 TOTAL WALL CLOCK TIME=         12.1 SECONDS, CPU UTILIZATION IS    99.92%
            100000000  WORDS OF DYNAMIC MEMORY USED
 EXECUTION OF GAMESS TERMINATED NORMALLY Wed Nov 16 19:20:56 2022
 DDI: 715512 bytes (0.7 MB / 0 MWords) used by master data server.

 ----------------------------------------
 CPU timing information for all processes
 ========================================
 0: 11.753 + 0.324 = 12.77
 ----------------------------------------
Note: The following floating-point exceptions are signalling: IEEE_DENORMAL
 ddikick.x: exited gracefully.
unset echo
----- accounting info -----
Files used on the master node io002 were:
-rw-r--r-- 1 bsonghao nooijen   20696 Nov 16 19:20 /scratch/bsonghao/nh3_diabatization_2d_at_mode_7_8_dist0.0_-0.6.F05
-rw-r--r-- 1 bsonghao nooijen  363520 Nov 16 19:20 /scratch/bsonghao/nh3_diabatization_2d_at_mode_7_8_dist0.0_-0.6.F09
-rw-r--r-- 1 bsonghao nooijen 1995920 Nov 16 19:20 /scratch/bsonghao/nh3_diabatization_2d_at_mode_7_8_dist0.0_-0.6.F10
-rw-r--r-- 1 bsonghao nooijen  105360 Nov 16 19:20 /scratch/bsonghao/nh3_diabatization_2d_at_mode_7_8_dist0.0_-0.6.F13
-rw-r--r-- 1 bsonghao nooijen  180312 Nov 16 19:20 /scratch/bsonghao/nh3_diabatization_2d_at_mode_7_8_dist0.0_-0.6.F15
-rw-r--r-- 1 bsonghao nooijen       0 Nov 16 19:20 /scratch/bsonghao/nh3_diabatization_2d_at_mode_7_8_dist0.0_-0.6.F16
-rw-r--r-- 1 bsonghao nooijen    9808 Nov 16 19:20 /scratch/bsonghao/nh3_diabatization_2d_at_mode_7_8_dist0.0_-0.6.F70
-rw-r--r-- 1 bsonghao nooijen    9808 Nov 16 19:20 /scratch/bsonghao/nh3_diabatization_2d_at_mode_7_8_dist0.0_-0.6.F71
-rw-r--r-- 1 bsonghao nooijen   19608 Nov 16 19:20 /scratch/bsonghao/nh3_diabatization_2d_at_mode_7_8_dist0.0_-0.6.F72
-rw-r--r-- 1 bsonghao nooijen   19608 Nov 16 19:20 /scratch/bsonghao/nh3_diabatization_2d_at_mode_7_8_dist0.0_-0.6.F73
-rw-r--r-- 1 bsonghao nooijen 1920824 Nov 16 19:20 /scratch/bsonghao/nh3_diabatization_2d_at_mode_7_8_dist0.0_-0.6.F74
-rw-r--r-- 1 bsonghao nooijen       0 Nov 16 19:20 /scratch/bsonghao/nh3_diabatization_2d_at_mode_7_8_dist0.0_-0.6.F75
-rw-r--r-- 1 bsonghao nooijen   58848 Nov 16 19:20 /scratch/bsonghao/nh3_diabatization_2d_at_mode_7_8_dist0.0_-0.6.F76
-rw-r--r-- 1 bsonghao nooijen       0 Nov 16 19:20 /scratch/bsonghao/nh3_diabatization_2d_at_mode_7_8_dist0.0_-0.6.F77
-rw-r--r-- 1 bsonghao nooijen    1864 Nov 16 19:20 /scratch/bsonghao/nh3_diabatization_2d_at_mode_7_8_dist0.0_-0.6.F78
-rw-r--r-- 1 bsonghao nooijen   39208 Nov 16 19:20 /scratch/bsonghao/nh3_diabatization_2d_at_mode_7_8_dist0.0_-0.6.F79
-rw-r--r-- 1 bsonghao nooijen     104 Nov 16 19:20 /scratch/bsonghao/nh3_diabatization_2d_at_mode_7_8_dist0.0_-0.6.F80
-rw-r--r-- 1 bsonghao nooijen   13472 Nov 16 19:20 /scratch/bsonghao/nh3_diabatization_2d_at_mode_7_8_dist0.0_-0.6.F81
-rw-r--r-- 1 bsonghao nooijen      16 Nov 16 19:20 /scratch/bsonghao/nh3_diabatization_2d_at_mode_7_8_dist0.0_-0.6.F82
-rw-r--r-- 1 bsonghao nooijen   19216 Nov 16 19:20 /scratch/bsonghao/nh3_diabatization_2d_at_mode_7_8_dist0.0_-0.6.F83
-rw-r--r-- 1 bsonghao nooijen   29712 Nov 16 19:20 /scratch/bsonghao/nh3_diabatization_2d_at_mode_7_8_dist0.0_-0.6.F84
-rw-r--r-- 1 bsonghao nooijen  331752 Nov 16 19:20 /scratch/bsonghao/nh3_diabatization_2d_at_mode_7_8_dist0.0_-0.6.F85
-rw-r--r-- 1 bsonghao nooijen  658296 Nov 16 19:20 /scratch/bsonghao/nh3_diabatization_2d_at_mode_7_8_dist0.0_-0.6.F86
-rw-r--r-- 1 bsonghao nooijen     656 Nov 16 19:20 /scratch/bsonghao/nh3_diabatization_2d_at_mode_7_8_dist0.0_-0.6.F87
-rw-r--r-- 1 bsonghao nooijen   23056 Nov 16 19:20 /scratch/bsonghao/nh3_diabatization_2d_at_mode_7_8_dist0.0_-0.6.F88
-rw-r--r-- 1 bsonghao nooijen     240 Nov 16 19:20 /scratch/bsonghao/nh3_diabatization_2d_at_mode_7_8_dist0.0_-0.6.F89
-rw-r--r-- 1 bsonghao nooijen       0 Nov 16 19:20 /scratch/bsonghao/nh3_diabatization_2d_at_mode_7_8_dist0.0_-0.6.F90
-rw-r--r-- 1 bsonghao nooijen   13760 Nov 16 19:20 /scratch/bsonghao/nh3_diabatization_2d_at_mode_7_8_dist0.0_-0.6.F91
-rw-r--r-- 1 bsonghao nooijen   22776 Nov 16 19:20 /scratch/bsonghao/nh3_diabatization_2d_at_mode_7_8_dist0.0_-0.6.F92
-rw-r--r-- 1 bsonghao nooijen   23168 Nov 16 19:20 /scratch/bsonghao/nh3_diabatization_2d_at_mode_7_8_dist0.0_-0.6.F93
-rw-r--r-- 1 bsonghao nooijen   22776 Nov 16 19:20 /scratch/bsonghao/nh3_diabatization_2d_at_mode_7_8_dist0.0_-0.6.F94
-rw-r--r-- 1 bsonghao nooijen   13760 Nov 16 19:20 /scratch/bsonghao/nh3_diabatization_2d_at_mode_7_8_dist0.0_-0.6.F95
-rw-r--r-- 1 bsonghao nooijen   29440 Nov 16 19:20 /scratch/bsonghao/nh3_diabatization_2d_at_mode_7_8_dist0.0_-0.6.F96
-rw-r--r-- 1 bsonghao nooijen    1184 Nov 16 19:20 /scratch/bsonghao/nh3_diabatization_2d_at_mode_7_8_dist0.0_-0.6.F97
-rw-r--r-- 1 bsonghao nooijen    9808 Nov 16 19:20 /scratch/bsonghao/nh3_diabatization_2d_at_mode_7_8_dist0.0_-0.6.F98
-rw-r--r-- 1 bsonghao nooijen   30264 Nov 16 19:20 /scratch/bsonghao/nh3_diabatization_2d_at_mode_7_8_dist0.0_-0.6.F99
ls: No match.
ls: No match.
ls: No match.
Wed 16 Nov 2022 07:20:59 PM EST
0.303u 0.031s 0:15.45 2.1%	0+0k 48+224io 0pf+0w
