----- GAMESS execution script 'rungms' -----
This job is running on host cpu001
under operating system Linux at Mon 20 Mar 2023 11:56:23 AM EDT
Available scratch disk space (Kbyte units) at beginning of the job is
Filesystem             1K-blocks       Used Available Use% Mounted on
helmholtz.nlogn:/home 6391504896 5080328192 989037568  84% /home
GAMESS temporary binary files will be written to /home/bjb2chen/gmsscr/
GAMESS supplementary output files will be written to /home/bjb2chen/gamess/vibronics/converged_inputs
Copying input file CoF3_cat1_cct_rohf_D3h_e_d5_mult6.inp to your run's scratch directory...
cp CoF3_cat1_cct_rohf_D3h_e_d5_mult6.inp /home/bjb2chen/gmsscr//CoF3_cat1_cct_rohf_D3h_e_d5_mult6.F05
unset echo
/home/bjb2chen/gamess/ddikick.x /home/bjb2chen/gamess/gamess.00.x CoF3_cat1_cct_rohf_D3h_e_d5_mult6 -ddi 1 1 cpu001 -scr /home/bjb2chen/gmsscr/

 Distributed Data Interface kickoff program.
 Initiating 1 compute processes on 1 nodes to run the following command:
 /home/bjb2chen/gamess/gamess.00.x CoF3_cat1_cct_rohf_D3h_e_d5_mult6 

          ******************************************************
          *         GAMESS VERSION = 02 AUG 2018 (R2)         *
          *             FROM IOWA STATE UNIVERSITY             *
          * M.W.SCHMIDT, K.K.BALDRIDGE, J.A.BOATZ, S.T.ELBERT, *
          *   M.S.GORDON, J.H.JENSEN, S.KOSEKI, N.MATSUNAGA,   *
          *          K.A.NGUYEN, S.J.SU, T.L.WINDUS,           *
          *       TOGETHER WITH M.DUPUIS, J.A.MONTGOMERY       *
          *         J.COMPUT.CHEM.  14, 1347-1363(1993)        *
          **************** 64 BIT LINUX VERSION ****************

  SINCE 1993, STUDENTS AND POSTDOCS WORKING AT IOWA STATE UNIVERSITY
  AND ALSO IN THEIR VARIOUS JOBS AFTER LEAVING ISU HAVE MADE IMPORTANT
  CONTRIBUTIONS TO THE CODE:
     IVANA ADAMOVIC, CHRISTINE AIKENS, YURI ALEXEEV, POOJA ARORA,
     ANDREY ASADCHEV, ROB BELL, PRADIPTA BANDYOPADHYAY, JONATHAN BENTZ,
     BRETT BODE, KURT BRORSEN, CALEB CARLIN, GALINA CHABAN, WEI CHEN,
     CHEOL HO CHOI, PAUL DAY, ALBERT DEFUSCO, NUWAN DESILVA, TIM DUDLEY,
     DMITRI FEDOROV, ALEX FINDLATER, GRAHAM FLETCHER, MARK FREITAG,
     KURT GLAESEMANN, ANASTASIA GUININA,
     DAN KEMP, GRANT MERRILL, NORIYUKI MINEZAWA, JONATHAN MULLIN,
     TAKESHI NAGATA, SEAN NEDD, HEATHER NETZLOFF, BOSILJKA NJEGIC, RYAN OLSON,
     MIKE PAK, BUU PHAM,
     SPENCER PRUITT, LUKE ROSKOP, JIM SHOEMAKER, LYUDMILA SLIPCHENKO,
     TONY SMITH, SAROM SOK LEANG, JIE SONG, TETSUYA TAKETSUGU, SIMON WEBB,
     PENG XU, SOOHAENG YOO, FEDERICO ZAHARIEV

  ADDITIONAL CODE HAS BEEN PROVIDED BY COLLABORATORS IN OTHER GROUPS:
     IOWA STATE UNIVERSITY:
          JOE IVANIC, AARON WEST, LAIMUTIS BYTAUTAS, KLAUS RUEDENBERG
     UNIVERSITY OF TOKYO: KIMIHIKO HIRAO, TAKAHITO NAKAJIMA,
          TAKAO TSUNEDA, MUNEAKI KAMIYA, SUSUMU YANAGISAWA,
          KIYOSHI YAGI, MAHITO CHIBA, SEIKEN TOKURA, NAOAKI KAWAKAMI
     UNIVERSITY OF AARHUS: FRANK JENSEN
     UNIVERSITY OF IOWA: VISVALDAS KAIRYS, HUI LI
     NATIONAL INST. OF STANDARDS AND TECHNOLOGY: WALT STEVENS, DAVID GARMER
     UNIVERSITY OF PISA: BENEDETTA MENNUCCI, JACOPO TOMASI
     UNIVERSITY OF MEMPHIS: HENRY KURTZ, PRAKASHAN KORAMBATH
     UNIVERSITY OF ALBERTA: TOBY ZENG, MARIUSZ KLOBUKOWSKI
     UNIVERSITY OF NEW ENGLAND: MARK SPACKMAN
     MIE UNIVERSITY: HIROAKI UMEDA
     NAT. INST. OF ADVANCED INDUSTRIAL SCIENCE AND TECHNOLOGY: KAZUO KITAURA
     MICHIGAN STATE UNIVERSITY:
          KAROL KOWALSKI, MARTA WLOCH, JEFFREY GOUR, JESSE LUTZ,
          WEI LI, JUN SHEN, J. EMILIANO DEUSTUA, PIOTR PIECUCH
     UNIVERSITY OF MINNESOTA:
          YINAN SHU
     UNIVERSITY OF SILESIA: MONIKA MUSIAL, STANISLAW KUCHARSKI
     FACULTES UNIVERSITAIRES NOTRE-DAME DE LA PAIX:
          OLIVIER QUINET, BENOIT CHAMPAGNE
     UNIVERSITY OF CALIFORNIA - SANTA BARBARA: BERNARD KIRTMAN
     INSTITUTE FOR MOLECULAR SCIENCE:
          KAZUYA ISHIMURA, MICHIO KATOUDA, AND SHIGERU NAGASE
     UNIVERSITY OF NOTRE DAME: ANNA POMOGAEVA, DAN CHIPMAN
     KYUSHU UNIVERSITY:
          HARUYUKI NAKANO,
          FENG LONG GU, JACEK KORCHOWIEC, MARCIN MAKOWSKI, AND YURIKO AOKI,
          HIROTOSHI MORI AND EISAKU MIYOSHI
     PENNSYLVANIA STATE UNIVERSITY:
          TZVETELIN IORDANOV, CHET SWALINA, JONATHAN SKONE,
          SHARON HAMMES-SCHIFFER
     WASEDA UNIVERSITY:
          MASATO KOBAYASHI, TOMOKO AKAMA, TSUGUKI TOUMA,
          TAKESHI YOSHIKAWA, YASUHIRO IKABATA, JUNJI SEINO,
          YUYA NAKAJIMA, HIROMI NAKAI
     NANJING UNIVERSITY: SHUHUA LI
     UNIVERSITY OF NEBRASKA:
          PEIFENG SU, DEJUN SI, NANDUN THELLAMUREGE, YALI WANG, HUI LI
     UNIVERSITY OF ZURICH: ROBERTO PEVERATI, KIM BALDRIDGE
     N. COPERNICUS UNIVERSITY AND JACKSON STATE UNIVERSITY:
          MARIA BARYSZ
     UNIVERSITY OF COPENHAGEN: Jimmy Kromann, CASPER STEINMANN
     TOKYO INSTITUTE OF TECHNOLOGY: HIROYA NAKATA
     NAGOYA UNIVERSITY: YOSHIO NISHIMOTO, STEPHAN IRLE
     MOSCOW STATE UNIVERSITY: VLADIMIR MIRONOV

 EXECUTION OF GAMESS BEGUN Mon Mar 20 11:56:23 2023

            ECHO OF THE FIRST FEW INPUT CARDS -
 INPUT CARD> !Step 2: single point gmcpt calculation averaging 10 states                    
 INPUT CARD> !        for FeF4- at optimized geometry. The UHF orbitals at                  
 INPUT CARD> !        the MP2 optimized structure is taken as the initial                   
 INPUT CARD> !        guess of orbitals in the $VEC group.                                  
 INPUT CARD> $system kdiag=3 mwords=100 memddi=1000 parall=.t. $end                         
 INPUT CARD> $contrl runtyp=energy ispher=1 $end                                            
 INPUT CARD> $contrl icut=9 itol=20 inttyp=rysquad qmttol=1.0d-05 nosym=0 $end              
 INPUT CARD> $scf    npunch=2 conv=1.0d-06 dirscf=.t. diis=.f. soscf=.t. ethrsh=10.0 $end   
 INPUT CARD> $contrl scftyp=rohf  mult=6 maxit=200 icharg=1 $end                            
 INPUT CARD> $guess  guess=moread norb=158 purify=.t. norder=1                              
 INPUT CARD>         iorder(16)=25,26,27,28,29                                              
 INPUT CARD>         iorder(25)=16,17,18,19,20 $end                                         
 INPUT CARD> $basis  gbasis=cct $end                                                        
 INPUT CARD> $mcscf  cistep=gmcci fullnr=.t. finci=mos                                      
 INPUT CARD>         acurcy=1.d-6 maxit=100 $end                                            
 INPUT CARD> $trans  dirtrf=.t. $end                                                        
 INPUT CARD> $mrmp   mrpt=gmcpt rdvecs=.f. $end                                             
 INPUT CARD> $gmcpt  nmofzc=27 nmodoc=0 nmoact=5 nelact=5 stsym(1)=A nsolut=100             
 INPUT CARD>         reftyp=ormas nspace=1 mstart(1)=28 mine(1)=5 maxe(1)=5                 
 INPUT CARD>         kstate(1)=1                                                            
 INPUT CARD>         wstate(1)=1                                                            
 INPUT CARD>         iwgt=0 thrwgt=-1.0 krot=.f. kszdoe=.f. knospn=.f.                      
 INPUT CARD>         thrde=-1.0 edshft=0.02 $end                                            
 INPUT CARD> $statpt hssend=.t. $end                                                        
 INPUT CARD> $data                                                                          
 INPUT CARD> FeH4- 10 states calculation at opt geometry.                                   
 INPUT CARD> dnh 3                                                                          
 INPUT CARD>                                                                                
 INPUT CARD> Co     27.0   0.0  0.0  0.0                                                    
 INPUT CARD> F       9.0   1.715  0.0  0.0                                                  
 INPUT CARD> $end                                                                           
 INPUT CARD>--- OPEN SHELL ORBITALS --- GENERATED AT Mon Mar 13 12:29:52 2023               
 INPUT CARD> FeH4- 10 states calculation at opt geometry.                                   
 INPUT CARD>E(ROHF)=    -1661.2939022693, E(NUC)=  268.2284123203,   14 ITERS               
 INPUT CARD> $VEC                                                                           
 INPUT CARD> 1  1 9.82352209E-01-1.87045018E-01-3.91249188E-04 8.15104840E-05-3.71420919E-05
 INPUT CARD> 1  2 5.28426702E-05 2.19416395E-06 0.00000000E+00 0.00000000E+00 0.00000000E+00
 INPUT CARD> 1  3 0.00000000E+00 0.00000000E+00 0.00000000E+00 0.00000000E+00 0.00000000E+00
 INPUT CARD> 1  4 0.00000000E+00 0.00000000E+00 0.00000000E+00 0.00000000E+00 0.00000000E+00
 INPUT CARD> 1  5 0.00000000E+00 0.00000000E+00 0.00000000E+00 0.00000000E+00 0.00000000E+00
 INPUT CARD> 1  6-6.72645644E-07-6.72645644E-07 1.34529129E-06 0.00000000E+00 0.00000000E+00
 INPUT CARD> 1  7 0.00000000E+00-9.08615325E-07-9.08615325E-07 1.81723065E-06 0.00000000E+00
 INPUT CARD> 1  8 0.00000000E+00 0.00000000E+00-2.86137285E-07-2.86137285E-07 5.72274571E-07
 INPUT CARD> 1  9 0.00000000E+00 0.00000000E+00 0.00000000E+00 3.24414299E-07 3.24414299E-07
 INPUT CARD> 1 10-6.48828599E-07 0.00000000E+00 0.00000000E+00 0.00000000E+00 1.96151642E-07
 INPUT CARD> 1 11 0.00000000E+00 0.00000000E+00 0.00000000E+00 0.00000000E+00-2.63165044E-07
 INPUT CARD> 1 12 0.00000000E+00 0.00000000E+00 0.00000000E+00 0.00000000E+00-9.78793773E-07
 INPUT CARD> 1 13 0.00000000E+00 0.00000000E+00 0.00000000E+00 0.00000000E+00 1.31318965E-06
 INPUT CARD> 1 14 0.00000000E+00 0.00000000E+00 0.00000000E+00 0.00000000E+00-2.10620935E-08
 INPUT CARD> 1 15-2.10620935E-08-5.61655827E-08 0.00000000E+00 0.00000000E+00 0.00000000E+00
  100000000 WORDS OF MEMORY AVAILABLE

     BASIS OPTIONS
     -------------
     GBASIS=CCT          IGAUSS=       0      POLAR=NONE    
     NDFUNC=       0     NFFUNC=       0     DIFFSP=       F
     NPFUNC=       0      DIFFS=       F     BASNAM=        


     RUN TITLE
     ---------
  FeH4- 10 states calculation at opt geometry.                                   

 THE POINT GROUP OF THE MOLECULE IS DNH     
 THE ORDER OF THE PRINCIPAL AXIS IS     3

 ATOM      ATOMIC                      COORDINATES (BOHR)
           CHARGE         X                   Y                   Z
 CO         27.0     0.0000000000        0.0000000000        0.0000000000
 F           9.0    -1.6204400345        2.8066844703        0.0000000000
 F           9.0    -1.6204400345       -2.8066844703        0.0000000000
 F           9.0     3.2408800689        0.0000000000        0.0000000000

          INTERNUCLEAR DISTANCES (ANGS.)
          ------------------------------

                1 CO         2 F          3 F          4 F     

   1 CO      0.0000000    1.7150000 *  1.7150000 *  1.7150000 *
   2 F       1.7150000 *  0.0000000    2.9704671 *  2.9704671 *
   3 F       1.7150000 *  2.9704671 *  0.0000000    2.9704671 *
   4 F       1.7150000 *  2.9704671 *  2.9704671 *  0.0000000  

  * ... LESS THAN  3.000


     ATOMIC BASIS SET
     ----------------
 THE CONTRACTED PRIMITIVE FUNCTIONS HAVE BEEN UNNORMALIZED
 THE CONTRACTED BASIS FUNCTIONS ARE NOW NORMALIZED TO UNITY

  SHELL TYPE  PRIMITIVE        EXPONENT          CONTRACTION COEFFICIENT(S)

 CO        

      1   S       1       4675675.0000000    0.000007979026
      1   S       2        700161.5000000    0.000062040710
      1   S       3        159337.3000000    0.000326173499
      1   S       4         45130.4600000    0.001375359996
      1   S       5         14722.3800000    0.004979996986
      1   S       6          5314.2220000    0.015964339954
      1   S       7          2072.0180000    0.045520859869
      1   S       8           858.6188000    0.112738499676
      1   S       9           373.5497000    0.226826199348
      1   S      10           168.9229000    0.320307399079
      1   S      11            78.2963900    0.237402099317
      1   S      12            35.5212300    0.074776859785
      1   S      13            17.0414400    0.095818719724
      1   S      14             8.1730000    0.096499109722
      1   S      15             3.6103180    0.016233619953
      1   S      16             1.6970470   -0.000453549699
      1   S      17             0.7435320    0.000051135190
      1   S      18             0.1583440   -0.000041745080
      1   S      19             0.0750360    0.000040275770

      2   S      20       4675675.0000000   -0.000004200222
      2   S      21        700161.5000000   -0.000032658172
      2   S      22        159337.3000000   -0.000171763672
      2   S      23         45130.4600000   -0.000724782227
      2   S      24         14722.3800000   -0.002631450845
      2   S      25          5314.2220000   -0.008489236012
      2   S      26          2072.0180000   -0.024606085688
      2   S      27           858.6188000   -0.063220321992
      2   S      28           373.5497000   -0.138195114153
      2   S      29           168.9229000   -0.234067007726
      2   S      30            78.2963900   -0.241499176219
      2   S      31            35.5212300    0.030352991325
      2   S      32            17.0414400    0.510131937411
      2   S      33             8.1730000    0.497491790996
      2   S      34             3.6103180    0.089707079707
      2   S      35             1.6970470   -0.005941008814
      2   S      36             0.7435320    0.000217535278
      2   S      37             0.1583440   -0.000548013177
      2   S      38             0.0750360    0.000452578481

      3   S      39       4675675.0000000    0.000000959940
      3   S      40        700161.5000000    0.000007467071
      3   S      41        159337.3000000    0.000039258817
      3   S      42         45130.4600000    0.000165886575
      3   S      43         14722.3800000    0.000602854968
      3   S      44          5314.2220000    0.001956584889
      3   S      45          2072.0180000    0.005730332194
      3   S      46           858.6188000    0.015140424985
      3   S      47           373.5497000    0.034864104218
      3   S      48           168.9229000    0.065749476822
      3   S      49            78.2963900    0.078369819966
      3   S      50            35.5212300   -0.018783501936
      3   S      51            17.0414400   -0.306480566917
      3   S      52             8.1730000   -0.456962371866
      3   S      53             3.6103180    0.137913318059
      3   S      54             1.6970470    0.719870876652
      3   S      55             0.7435320    0.399537224756
      3   S      56             0.1583440    0.020813881416
      3   S      57             0.0750360   -0.007826134413

      4   S      58       4675675.0000000   -0.000000276519
      4   S      59        700161.5000000   -0.000002150146
      4   S      60        159337.3000000   -0.000011310778
      4   S      61         45130.4600000   -0.000047759489
      4   S      62         14722.3800000   -0.000173727727
      4   S      63          5314.2220000   -0.000563261203
      4   S      64          2072.0180000   -0.001652238041
      4   S      65           858.6188000   -0.004360475925
      4   S      66           373.5497000   -0.010073445487
      4   S      67           168.9229000   -0.018994588573
      4   S      68            78.2963900   -0.022877956727
      4   S      69            35.5212300    0.005656001429
      4   S      70            17.0414400    0.092647782216
      4   S      71             8.1730000    0.146625953517
      4   S      72             3.6103180   -0.056780347044
      4   S      73             1.6970470   -0.290039459333
      4   S      74             0.7435320   -0.324564890047
      4   S      75             0.1583440    0.361286288406
      4   S      76             0.0750360    0.779979303455

      5   S      77       4675675.0000000   -0.000000375943
      5   S      78        700161.5000000   -0.000002986473
      5   S      79        159337.3000000   -0.000015228524
      5   S      80         45130.4600000   -0.000066989482
      5   S      81         14722.3800000   -0.000231359842
      5   S      82          5314.2220000   -0.000799286946
      5   S      83          2072.0180000   -0.002169824201
      5   S      84           858.6188000   -0.006294352843
      5   S      85           373.5497000   -0.012899098481
      5   S      86           168.9229000   -0.028676464682
      5   S      87            78.2963900   -0.025293507471
      5   S      88            35.5212300   -0.008271815023
      5   S      89            17.0414400    0.168098386692
      5   S      90             8.1730000    0.147162726029
      5   S      91             3.6103180    0.034591657136
      5   S      92             1.6970470   -0.859252154691
      5   S      93             0.7435320    0.208603367783
      5   S      94             0.1583440    1.665947312096
      5   S      95             0.0750360   -0.694851839860

      6   S      96       4675675.0000000   -0.000000423871
      6   S      97        700161.5000000   -0.000003380573
      6   S      98        159337.3000000   -0.000017138538
      6   S      99         45130.4600000   -0.000075965982
      6   S     100         14722.3800000   -0.000259853528
      6   S     101          5314.2220000   -0.000908385000
      6   S     102          2072.0180000   -0.002431690094
      6   S     103           858.6188000   -0.007181092213
      6   S     104           373.5497000   -0.014417795156
      6   S     105           168.9229000   -0.033095716076
      6   S     106            78.2963900   -0.027704630055
      6   S     107            35.5212300   -0.012813142310
      6   S     108            17.0414400    0.205463067526
      6   S     109             8.1730000    0.206810533299
      6   S     110             3.6103180   -0.121025620716
      6   S     111             1.6970470   -1.277995783429
      6   S     112             0.7435320    1.491198803533
      6   S     113             0.1583440   -0.093935698071
      6   S     114             0.0750360   -1.078343041724

      7   S     115             0.0330910    1.000000000000

      8   P     116         19267.7800000    0.000041000039
      8   P     117          4560.9860000    0.000369000347
      8   P     118          1481.4360000    0.002128002002
      8   P     119           566.8671000    0.009372008817
      8   P     120           240.4910000    0.033155031190
      8   P     121           109.6105000    0.094752089136
      8   P     122            52.5949100    0.209093196700
      8   P     123            26.0836100    0.333722313943
      8   P     124            13.2614300    0.332208312518
      8   P     125             6.7997780    0.154613145449
      8   P     126             3.3934140    0.020902019663
      8   P     127             1.6487660   -0.002024001904
      8   P     128             0.7762820   -0.001697001596
      8   P     129             0.2980030   -0.000280000263
      8   P     130             0.1136180    0.000026000024

      9   P     131         19267.7800000   -0.000015001601
      9   P     132          4560.9860000   -0.000131013983
      9   P     133          1481.4360000   -0.000758080910
      9   P     134           566.8671000   -0.003363358971
      9   P     135           240.4910000   -0.012055286661
      9   P     136           109.6105000   -0.035427781207
      9   P     137            52.5949100   -0.081295676687
      9   P     138            26.0836100   -0.136922613750
      9   P     139            13.2614300   -0.139033839081
      9   P     140             6.7997780    0.035471785903
      9   P     141             3.3934140    0.338534131745
      9   P     142             1.6487660    0.454481506808
      9   P     143             0.7762820    0.279822865492
      9   P     144             0.2980030    0.044780779452
      9   P     145             0.1136180   -0.003151336342

     10   P     146         19267.7800000   -0.000004169493
     10   P     147          4560.9860000   -0.000040305102
     10   P     148          1481.4360000   -0.000232101793
     10   P     149           566.8671000   -0.001031254673
     10   P     150           240.4910000   -0.003699730377
     10   P     151           109.6105000   -0.010897665622
     10   P     152            52.5949100   -0.025087841109
     10   P     153            26.0836100   -0.042501034908
     10   P     154            13.2614300   -0.043518391270
     10   P     155             6.7997780    0.015720379524
     10   P     156             3.3934140    0.125070900307
     10   P     157             1.6487660    0.181696788641
     10   P     158             0.7762820    0.099800991324
     10   P     159             0.2980030   -0.308067181022
     10   P     160             0.1136180   -0.793628301452

     11   P     161         19267.7800000    0.000005215088
     11   P     162          4560.9860000    0.000046935794
     11   P     163          1481.4360000    0.000265969499
     11   P     164           566.8671000    0.001193212184
     11   P     165           240.4910000    0.004235694648
     11   P     166           109.6105000    0.012615298392
     11   P     167            52.5949100    0.028657952758
     11   P     168            26.0836100    0.049602790047
     11   P     169            13.2614300    0.049336820548
     11   P     170             6.7997780   -0.015038228376
     11   P     171             3.3934140   -0.156517313539
     11   P     172             1.6487660   -0.207656468574
     11   P     173             0.7762820   -0.083215076609
     11   P     174             0.2980030    0.478781603740
     11   P     175             0.1136180    0.644058179445

     12   P     176         19267.7800000    0.000011612885
     12   P     177          4560.9860000    0.000097125946
     12   P     178          1481.4360000    0.000594368558
     12   P     179           566.8671000    0.002485157345
     12   P     180           240.4910000    0.009476113989
     12   P     181           109.6105000    0.026192333786
     12   P     182            52.5949100    0.065011040490
     12   P     183            26.0836100    0.100057671070
     12   P     184            13.2614300    0.133751928431
     12   P     185             6.7997780   -0.067306168811
     12   P     186             3.3934140   -0.441887157739
     12   P     187             1.6487660   -0.599504620131
     12   P     188             0.7762820    0.924180820248
     12   P     189             0.2980030    0.758282315285
     12   P     190             0.1136180   -0.923458709958

     13   P     191             0.0416240    1.000000000000

     14   D     192           126.2640000    0.003567388562
     14   D     193            37.5226000    0.026307203858
     14   D     194            13.8021000    0.101693950072
     14   D     195             5.6092700    0.244479947711
     14   D     196             2.3336900    0.362677389371
     14   D     197             0.9364150    0.365458123019
     14   D     198             0.3482370    0.240497888342

     15   D     199           126.2640000   -0.005098657495
     15   D     200            37.5226000   -0.037676408582
     15   D     201            13.8021000   -0.149963464367
     15   D     202             5.6092700   -0.365459784218
     15   D     203             2.3336900   -0.398725797652
     15   D     204             0.9364150    0.114958616917
     15   D     205             0.3482370    0.703084433848

     16   D     206           126.2640000    0.006664898326
     16   D     207            37.5226000    0.049728426940
     16   D     208            13.8021000    0.205890528200
     16   D     209             5.6092700    0.498781739241
     16   D     210             2.3336900    0.105171364510
     16   D     211             0.9364150   -0.936994539586
     16   D     212             0.3482370    0.004087885536

     17   D     213             0.1123530    1.000000000000

     18   F     214             3.8137000    1.000000000000

     19   F     215             0.9309000    1.000000000000

     20   G     216             2.4709000    1.000000000000

 F         

     41   S     217         19500.0000000    0.000519371600
     41   S     218          2923.0000000    0.004018727387
     41   S     219           664.5000000    0.020692911859
     41   S     220           187.5000000    0.080937968612
     41   S     221            60.6200000    0.236062075041
     41   S     222            21.4200000    0.443434759512
     41   S     223             7.9500000    0.358503673552
     41   S     224             0.8815000   -0.008084577247

     42   S     225         19500.0000000   -0.000199591153
     42   S     226          2923.0000000   -0.001555787449
     42   S     227           664.5000000   -0.008046764688
     42   S     228           187.5000000   -0.032558946542
     42   S     229            60.6200000   -0.101765899400
     42   S     230            21.4200000   -0.238844079709
     42   S     231             7.9500000   -0.301573702586
     42   S     232             0.8815000    1.032147264620

     43   S     233             2.2570000    1.000000000000

     44   S     234             0.3041000    1.000000000000

     45   P     235            43.8800000    0.041904620686
     45   P     236             9.9260000    0.262697841725
     45   P     237             2.9300000    0.797759373475

     46   P     238             0.9132000    1.000000000000

     47   P     239             0.2672000    1.000000000000

     48   D     240             3.1070000    1.000000000000

     49   D     241             0.8550000    1.000000000000

     50   F     242             1.9170000    1.000000000000

 TOTAL NUMBER OF BASIS SET SHELLS             =   50
 NUMBER OF CARTESIAN GAUSSIAN BASIS FUNCTIONS =  189
 NOTE: THIS RUN WILL RESTRICT THE MO VARIATION SPACE TO SPHERICAL HARMONICS.
 THE NUMBER OF ORBITALS KEPT IN THE VARIATIONAL SPACE WILL BE PRINTED LATER.
 NUMBER OF ELECTRONS                          =   53
 CHARGE OF MOLECULE                           =    1
 SPIN MULTIPLICITY                            =    6
 NUMBER OF OCCUPIED ORBITALS (ALPHA)          =   29
 NUMBER OF OCCUPIED ORBITALS (BETA )          =   24
 TOTAL NUMBER OF ATOMS                        =    4
 THE NUCLEAR REPULSION ENERGY IS      268.2284123203

     $CONTRL OPTIONS
     ---------------
 SCFTYP=ROHF         RUNTYP=ENERGY       EXETYP=RUN     
 MPLEVL=       0     CITYP =NONE         CCTYP =NONE         VBTYP =NONE    
 DFTTYP=NONE         TDDFT =NONE    
 MULT  =       6     ICHARG=       1     NZVAR =       0     COORD =UNIQUE  
 PP    =NONE         RELWFN=NONE         LOCAL =NONE         NUMGRD=       F
 ISPHER=       1     NOSYM =       0     MAXIT =     200     UNITS =ANGS    
 PLTORB=       F     MOLPLT=       F     AIMPAC=       F     FRIEND=        
 NPRINT=       7     IREST =       0     GEOM  =INPUT   
 NORMF =       0     NORMP =       0     ITOL  =      20     ICUT  =       9
 INTTYP=RYSQUAD      GRDTYP=BEST         QMTTOL= 1.0E-05

     $SYSTEM OPTIONS
     ---------------
  REPLICATED MEMORY=   100000000 WORDS (ON EVERY NODE).
 DISTRIBUTED MEMDDI=        1000 MILLION WORDS IN AGGREGATE,
 MEMDDI DISTRIBUTED OVER   1 PROCESSORS IS  1000000000 WORDS/PROCESSOR.
 TOTAL MEMORY REQUESTED ON EACH PROCESSOR=  1100000000 WORDS.
 TIMLIM=      525600.00 MINUTES, OR     365.0 DAYS.
 PARALL= T  BALTYP=  DLB     KDIAG=    3  COREFL= F
 MXSEQ2=     300 MXSEQ3=     150  mem10=         0

          ----------------
          PROPERTIES INPUT
          ----------------

     MOMENTS            FIELD           POTENTIAL          DENSITY
 IEMOM =       1   IEFLD =       0   IEPOT =       0   IEDEN =       0
 WHERE =COMASS     WHERE =NUCLEI     WHERE =NUCLEI     WHERE =NUCLEI  
 OUTPUT=BOTH       OUTPUT=BOTH       OUTPUT=BOTH       OUTPUT=BOTH    
 IEMINT=       0   IEFINT=       0                     IEDINT=       0
                                                       MORB  =       0
          EXTRAPOLATION IN EFFECT
          SOSCF IN EFFECT
 ORBITAL PRINTING OPTION: NPREO=     1   189     2     1

     -------------------------------
     INTEGRAL TRANSFORMATION OPTIONS
     -------------------------------
     NWORD  =            0
     CUTOFF = 1.0E-09     MPTRAN =       0
     DIRTRF =       T     AOINTS =DUP     

          ----------------------
          INTEGRAL INPUT OPTIONS
          ----------------------
 NOPK  =       1 NORDER=       0 SCHWRZ=       T

     ------------------------------------------
     THE POINT GROUP IS DNH, NAXIS= 3, ORDER=12
     ------------------------------------------

 -- VARIATIONAL SPACE WILL BE RESTRICTED TO PURE SPHERICAL HARMONICS ONLY --
 AFTER EXCLUDING CONTAMINANT COMBINATIONS FROM THE CARTESIAN GAUSSIAN BASIS
 SET, THE NUMBER OF SPHERICAL HARMONICS KEPT IN THE VARIATION SPACE IS  158

     DIMENSIONS OF THE SYMMETRY SUBSPACES ARE
 A1' =   27     A1" =    4     A2' =    9     A2" =   16     E'' =   17
 E'  =   34

 ..... DONE SETTING UP THE RUN .....
 CPU     0: STEP CPU TIME=     0.20 TOTAL CPU TIME=          0.2 (      0.0 MIN)
 TOTAL WALL CLOCK TIME=          0.2 SECONDS, CPU UTILIZATION IS    90.91%

          ********************
          1 ELECTRON INTEGRALS
          ********************
 ...... END OF ONE-ELECTRON INTEGRALS ......
 CPU     0: STEP CPU TIME=     0.03 TOTAL CPU TIME=          0.2 (      0.0 MIN)
 TOTAL WALL CLOCK TIME=          0.2 SECONDS, CPU UTILIZATION IS    92.00%

          -------------
          GUESS OPTIONS
          -------------
          GUESS =MOREAD            NORB  =     158          NORDER=       1
          MIX   =       F          PRTMO =       F          PUNMO =       F
          TOLZ  = 1.0E-08          TOLE  = 1.0E-05
          SYMDEN=       F          PURIFY=       T

 INITIAL GUESS ORBITALS GENERATED BY MOREAD   ROUTINE.

 STATISTICS FOR GENERATION OF SYMMETRY ORBITAL -Q- MATRIX
 NUMBER OF CARTESIAN ATOMIC ORBITALS=        189
 NUMBER OF SPHERICAL CONTAMINANTS DROPPED=    31
 NUMBER OF LINEARLY DEPENDENT MOS DROPPED=     0
 TOTAL NUMBER OF MOS IN VARIATION SPACE=     158
 ORBITAL PURIFICATION WILL OCCUR

 SYMMETRIES FOR INITIAL GUESS ORBITALS FOLLOW.  ALPHA SET(S).
    29 ORBITALS ARE OCCUPIED (   12 CORE ORBITALS).
    13=A1'     14=E'      15=E'      16=A2'     17=E''     18=E''     19=E'  
    20=E'      21=A1'     22=E'      23=E'      24=A2"     25=E'      26=E'  
    27=A1'     28=E''     29=E''     30=A1'     31=A2"     32=E'      33=E'  
    34=E''     35=E''     36=E'      37=E'      38=A1'     39=A1' 
 ORBITAL PURIFICATION WILL OCCUR

 SYMMETRIES FOR INITIAL GUESS ORBITALS FOLLOW.   BETA SET(S).
    24 ORBITALS ARE OCCUPIED (   12 CORE ORBITALS).
    13=A1'     14=E'      15=E'      16=A2'     17=E''     18=E''     19=E'  
    20=E'      21=A1'     22=E'      23=E'      24=A2"     25=E'      26=E'  
    27=A1'     28=E''     29=E''     30=A1'     31=A2"     32=E'      33=E'  
    34=E'' 
 ...... END OF INITIAL ORBITAL SELECTION ......
 CPU     0: STEP CPU TIME=     0.36 TOTAL CPU TIME=          0.6 (      0.0 MIN)
 TOTAL WALL CLOCK TIME=          0.6 SECONDS, CPU UTILIZATION IS    98.33%

                    ----------------------
                    AO INTEGRAL TECHNOLOGY
                    ----------------------
     S,P,L SHELL ROTATED AXIS INTEGRALS, REPROGRAMMED BY
        KAZUYA ISHIMURA (IMS) AND JOSE SIERRA (SYNSTAR).
     S,P,D,L SHELL ROTATED AXIS INTEGRALS PROGRAMMED BY
        KAZUYA ISHIMURA (INSTITUTE FOR MOLECULAR SCIENCE).
     S,P,D,F,G SHELL TO TOTAL QUARTET ANGULAR MOMENTUM SUM 5,
        ERIC PROGRAM BY GRAHAM FLETCHER (ELORET AND NASA ADVANCED
        SUPERCOMPUTING DIVISION, AMES RESEARCH CENTER).
     S,P,D,F,G,L SHELL GENERAL RYS QUADRATURE PROGRAMMED BY
        MICHEL DUPUIS (PACIFIC NORTHWEST NATIONAL LABORATORY).

          --------------------
          2 ELECTRON INTEGRALS
          --------------------

 DIRECT SCF METHOD SKIPS INTEGRAL STORAGE ON DISK.
 DIRECT TRANSFORMATION SKIPS AO INTEGRAL STORAGE ON DISK.
  ...... END OF TWO-ELECTRON INTEGRALS .....
 CPU     0: STEP CPU TIME=     0.01 TOTAL CPU TIME=          0.6 (      0.0 MIN)
 TOTAL WALL CLOCK TIME=          0.6 SECONDS, CPU UTILIZATION IS    98.36%

          ---------------------------
                 ROHF SCF CALCULATION
          ---------------------------

     NUCLEAR ENERGY =       268.2284123203
     MAXIT =200     NPUNCH=  2     MULT=  6
     EXTRAP=T  DAMP=F  SHIFT=F  RSTRCT=F  DIIS=F  SOSCF=T
     DENSITY MATRIX CONV=  2.00E-06
     ROHF CANONICALIZATION PARAMETERS
             C-C     O-O     V-V
     ALPHA -0.5000  0.5000  1.5000
     BETA   1.5000  0.5000 -0.5000
     SOSCF WILL OPTIMIZE    3861 ORBITAL ROTATION ANGLES. SOGTOL= 2.500E-01
     MEMORY REQUIRED FOR UHF/ROHF ITERS=    444000 WORDS.

 DIRECT SCF CALCULATION, SCHWRZ=T   FDIFF=T
 SCHWARZ INEQUALITY OVERHEAD:     17658 INTEGRALS, T=        1.39

                                                                                NONZERO     BLOCKS
 ITER EX      TOTAL ENERGY        E CHANGE  DENSITY CHANGE    ORB. GRAD       INTEGRALS    SKIPPED
   1  0    -1675.2221061453 -1675.2221061453   2.181784299   0.000000000       11186284      23863
   2  1    -1667.8216754760     7.4004306694   7.288262866   1.030795381       11216464      23267
   3  2    -1652.4661972347    15.35547824132571.554063796   1.734412257       11247150      21562
   4  3    -1554.7257318805    97.74046535432561.325414349   3.281613077       11305440      17085
   5  0    -1541.7101567258    13.0155751547  10.203934376   1.849355390       11305581      17098
   6  1    -1671.1775203830  -129.4673636572  10.507307637   1.039104693       11276083      20786
   7  2    -1643.6112896135    27.5662307696  33.037168324   1.679431758       11250431      21997
   8  3    -1567.0882300252    76.5230595882 282.975084176   5.017621375       11272967      20347
   9  0    -1446.5738639690   120.5143660562 304.745631338   4.881003287       11283115      20162
  10  1    -1675.0131715234  -228.4393075545  25.272810829   0.898763283       11260105      21786
  11  2    -1656.7744499351    18.2387215883  38.800150396   1.437820469       11245290      21787
  12  3    -1591.7950049486    64.9794449865  30.427566706   3.224603757       11259417      21325
  13  4    -1548.6790576703    43.11594727832911.794326898   1.688697465       11287569      19982
  14  0    -1477.8211036354    70.8579540349 654.291404467   6.012614528       11304113      17747
  15  1    -1664.3773257254  -186.55622209002286.814166798   0.694544972       11296821      19446
  16  2    -1667.9054403507    -3.5281146254  36.508753065   1.569168600       11301719      18194
  17  3    -1602.7148187362    65.19062161452194.990074313   5.161185776       11274379      20261
  18  0    -1498.6257550806   104.0890636556 327.738289791   3.797872313       11306966      16455
  19  1    -1657.2958157644  -158.67006068381541.900445243   2.991320451       11297349      19045
  20  2    -1579.0789429426    78.2168728218 404.131581411   2.284134304       11307522      16195
  21  3    -1463.6875813497   115.3913615929 210.838521959   4.821399733       11305180      17058
  22  4    -1543.8030466627   -80.1154653129 878.695941182   2.727890268       11289290      20200
  23  0    -1439.7227136606   104.0803330021 714.065126707   5.853952878       11293389      19568
  24  1    -1660.5820404328  -220.8593267722 762.667017547   2.662768821       11288329      19850
  25  2    -1592.0762379485    68.5058024843  40.924009365   2.679794474       11304332      16717
  26  3    -1555.0174327267    37.05880522181964.800797097   1.538287668       11304641      16742
  27  4    -1446.2835147682   108.73391795851963.834504796   6.323973888       11301776      18141
  28  0    -1535.6082391405   -89.3247243723 790.974980883   2.930852513       11301583      18321
  29  1    -1660.4792937783  -124.8710546377 841.414631466   2.767731337       11289094      19396
  30  2    -1590.4042057136    70.0750880647 328.315850224   2.790144442       11306167      16435
  31  3    -1555.5478585042    34.85634720942736.879028248   1.542413827       11306468      16399
  32  4    -1460.0918016204    95.45605688372738.354671181   6.368819755       11304020      17703
  33  0    -1535.9204519476   -75.8286503272 760.677508322   2.884101295       11303366      17858
  34  1    -1662.4367053310  -126.5162533834 707.338314349   1.707132168       11287288      19567
  35  2    -1605.3226685724    57.1140367586 136.798833536   2.678412373       11301820      17261
  36  3    -1550.6310409672    54.69162760522121.263496155   1.434409453       11302324      17147
  37  4    -1460.0528029985    90.57823796872221.006291507   6.252216296       11304521      17416
  38  0    -1535.9553710062   -75.9025680076 758.462003115   2.884108014       11303896      17573
  39  1    -1662.1943979998  -126.2390269936 734.043583765   1.979215680       11287722      19544
  40  2    -1602.3128440327    59.8815539670 139.951727771   2.668860434       11303396      17058
  41  3    -1550.3657348923    51.94710914051933.517556282   1.446178491       11303740      17020
  42  4    -1476.9986184532    73.36711643902038.177771967   6.012276898       11306054      16764
  43  0    -1536.8530454102   -59.8544269570 716.313720999   2.706185162       11305481      16897
  44  1    -1665.3004460066  -128.4474005964 725.671532559   1.151497512       11284530      19786
  45  2    -1627.8777055582    37.4227404484  34.473886451   2.149364539       11278561      20281
  46  3    -1552.7178192294    75.1598863288 304.124416243   1.297099902       11280071      20188
  47  0    -1443.8713648595   108.8464543699 332.699927377   6.025303773       11285945      20034
          ---------------START SECOND ORDER SCF---------------
  48  1    -1678.3065152996  -234.4351504401   1.127258027   0.230454855       11258978      21988
  49  2    -1678.9489087967    -0.6423934971   0.647573623   0.239909120       11224392      23503
  50  3    -1678.7919009476     0.1570078491   0.959581635   0.254501338       11159605      25572
  51  4    -1679.2349428678    -0.4430419202   0.299702060   0.124540501       11167090      25462
  52  5    -1679.3136422351    -0.0786993673   0.114134438   0.068146353       11075624      27271
  53  6    -1679.3272097308    -0.0135674957   0.147015145   0.041229896       11021628      28908
  54  7    -1679.3322336027    -0.0050238719   0.085430301   0.040337428       10934974      30215
  55  8    -1679.3381344367    -0.0059008340   0.068475832   0.015215373       10917782      31101
  56  9    -1679.3389778294    -0.0008433927   0.023035166   0.004127978       10744441      33719
  57 10    -1679.3392867543    -0.0003089249   0.012121191   0.002473685       10604038      35978
  58 11    -1679.3393693735    -0.0000826192   0.012873062   0.001347567       10515329      37743
  59 12    -1679.3394025479    -0.0000331744   0.001611879   0.000734727       10439952      38468
  60 13    -1679.3394082677    -0.0000057198   0.000833644   0.000165459       10208094      41693
  61 14    -1679.3394087786    -0.0000005109   0.000268719   0.000065272        9809873      46356
  62 15    -1679.3394085317     0.0000002469   0.000109932   0.000015650        9482611      50497
  63 16    -1679.3394097177    -0.0000011860   0.000036107   0.000008807        8978836      56507
  64 17    -1679.3394053183     0.0000043994   0.000009263   0.000002046        8580280      61194
  65 18    -1679.3394208956    -0.0000155772   0.000006926   0.000002135        8110674      67195
  66 19    -1679.3393839203     0.0000369753   0.000013690   0.000004646        7975416      69750
  67 20    -1679.3394049026    -0.0000209823   0.000003785   0.000000259        7848146      70854
  68 21    -1679.3394218427    -0.0000169401   0.000001460   0.000000560        7050892      80735
  69 22    -1679.3394021240     0.0000197187   0.000001750   0.000000329        6981122      82111
  70 23    -1679.3394077326    -0.0000056086   0.000001017   0.000000123        6841803      84275
  71 24    -1679.3394094951    -0.0000017626   0.000000064   0.000000030        6191434      91792
  72 25    -1679.3394086887     0.0000008064   0.000000027   0.000000003        4268504     120211

          -----------------
          DENSITY CONVERGED
          -----------------
     TIME TO FORM FOCK OPERATORS=    9454.9 SECONDS (     131.3 SEC/ITER)
     FOCK TIME ON FIRST ITERATION=     137.8, LAST ITERATION=      95.4
     TIME TO SOLVE SCF EQUATIONS=       1.5 SECONDS (       0.0 SEC/ITER)
 WARNING: SWAPPED  4 BETA  ORBITAL(S) AFTER FINAL CANONICALIZATION
          SO ORBITAL ORDER MATCHES THE ROHF DENSITY

 FINAL ROHF ENERGY IS    -1679.3394086887 AFTER  72 ITERATIONS

          --------------------
          SPIN SZ   =    2.500
          S-SQUARED =    8.750
          --------------------

          ------------
          EIGENVECTORS
          ------------

                      1          2          3          4          5
                 -283.8306   -35.5098   -30.7639   -30.7639   -30.7581
                     A1'        A1'        E'         E'         A2" 
    1  CO 1  S    0.982352   0.187034  -0.000000  -0.000000   0.000000
    2  CO 1  S   -0.187044   0.982317  -0.000000  -0.000000   0.000000
    3  CO 1  S   -0.000391   0.000626  -0.000000  -0.000000   0.000000
    4  CO 1  S    0.000069  -0.000470  -0.000000  -0.000000   0.000000
    5  CO 1  S   -0.000031   0.000275  -0.000000  -0.000000   0.000000
    6  CO 1  S    0.000044  -0.000237  -0.000000  -0.000000   0.000000
    7  CO 1  S    0.000004  -0.000029  -0.000000  -0.000000   0.000000
    8  CO 1  X   -0.000000   0.000000   0.999994  -0.000000   0.000000
    9  CO 1  Y   -0.000000   0.000000  -0.000000   0.999994   0.000000
   10  CO 1  Z   -0.000000   0.000000  -0.000000  -0.000000   0.999994
   11  CO 1  X   -0.000000   0.000000   0.001586  -0.000000   0.000000
   12  CO 1  Y   -0.000000   0.000000  -0.000000   0.001586   0.000000
   13  CO 1  Z   -0.000000   0.000000  -0.000000  -0.000000   0.001444
   14  CO 1  X   -0.000000   0.000000   0.001571  -0.000000   0.000000
   15  CO 1  Y   -0.000000   0.000000  -0.000000   0.001571   0.000000
   16  CO 1  Z   -0.000000   0.000000  -0.000000  -0.000000   0.002310
   17  CO 1  X   -0.000000   0.000000   0.001824  -0.000000   0.000000
   18  CO 1  Y   -0.000000   0.000000  -0.000000   0.001824   0.000000
   19  CO 1  Z   -0.000000   0.000000  -0.000000  -0.000000   0.002421
   20  CO 1  X   -0.000000   0.000000  -0.000062  -0.000000   0.000000
   21  CO 1  Y   -0.000000   0.000000  -0.000000  -0.000062   0.000000
   22  CO 1  Z   -0.000000   0.000000  -0.000000  -0.000000  -0.000221
   23  CO 1  X   -0.000000   0.000000  -0.000002  -0.000000   0.000000
   24  CO 1  Y   -0.000000   0.000000  -0.000000  -0.000002   0.000000
   25  CO 1  Z   -0.000000   0.000000  -0.000000  -0.000000   0.000024
   26  CO 1 XX   -0.000001  -0.000032   0.000094  -0.000000   0.000000
   27  CO 1 YY   -0.000001  -0.000032  -0.000094  -0.000000   0.000000
   28  CO 1 ZZ    0.000002   0.000064  -0.000000  -0.000000   0.000000
   29  CO 1 XY   -0.000000   0.000000  -0.000000  -0.000109   0.000000
   30  CO 1 XZ   -0.000000   0.000000  -0.000000  -0.000000   0.000000
   31  CO 1 YZ   -0.000000   0.000000  -0.000000  -0.000000   0.000000
   32  CO 1 XX   -0.000001  -0.000044   0.000094  -0.000000   0.000000
   33  CO 1 YY   -0.000001  -0.000044  -0.000094  -0.000000   0.000000
   34  CO 1 ZZ    0.000002   0.000087  -0.000000  -0.000000   0.000000
   35  CO 1 XY   -0.000000   0.000000  -0.000000  -0.000108   0.000000
   36  CO 1 XZ   -0.000000   0.000000  -0.000000  -0.000000   0.000000
   37  CO 1 YZ   -0.000000   0.000000  -0.000000  -0.000000   0.000000
   38  CO 1 XX   -0.000001  -0.000122   0.000067  -0.000000   0.000000
   39  CO 1 YY   -0.000001  -0.000122  -0.000067  -0.000000   0.000000
   40  CO 1 ZZ    0.000002   0.000243  -0.000000  -0.000000   0.000000
   41  CO 1 XY   -0.000000   0.000000  -0.000000  -0.000077   0.000000
   42  CO 1 XZ   -0.000000   0.000000  -0.000000  -0.000000   0.000000
   43  CO 1 YZ   -0.000000   0.000000  -0.000000  -0.000000   0.000000
   44  CO 1 XX    0.000000   0.000011  -0.000017  -0.000000   0.000000
   45  CO 1 YY    0.000000   0.000011   0.000017  -0.000000   0.000000
   46  CO 1 ZZ   -0.000001  -0.000023  -0.000000  -0.000000   0.000000
   47  CO 1 XY   -0.000000   0.000000  -0.000000   0.000019   0.000000
   48  CO 1 XZ   -0.000000   0.000000  -0.000000  -0.000000   0.000000
   49  CO 1 YZ   -0.000000   0.000000  -0.000000  -0.000000   0.000000
   50  CO 1 XXX   0.000001  -0.000010  -0.000018  -0.000000   0.000000
   51  CO 1 YYY  -0.000000   0.000000  -0.000000  -0.000018   0.000000
   52  CO 1 ZZZ  -0.000000   0.000000  -0.000000  -0.000000   0.000090
   53  CO 1 XXY  -0.000000   0.000000  -0.000000  -0.000008   0.000000
   54  CO 1 XXZ  -0.000000   0.000000  -0.000000  -0.000000  -0.000060
   55  CO 1 YYX  -0.000001   0.000013  -0.000008  -0.000000   0.000000
   56  CO 1 YYZ  -0.000000   0.000000  -0.000000  -0.000000  -0.000060
   57  CO 1 ZZX  -0.000000   0.000000   0.000032  -0.000000   0.000000
   58  CO 1 ZZY  -0.000000   0.000000  -0.000000   0.000032   0.000000
   59  CO 1 XYZ  -0.000000   0.000000  -0.000000  -0.000000   0.000000
   60  CO 1 XXX  -0.000001   0.000001   0.000028  -0.000000   0.000000
   61  CO 1 YYY  -0.000000   0.000000  -0.000000   0.000028   0.000000
   62  CO 1 ZZZ  -0.000000   0.000000  -0.000000  -0.000000  -0.000031
   63  CO 1 XXY  -0.000000   0.000000  -0.000000   0.000012   0.000000
   64  CO 1 XXZ  -0.000000   0.000000  -0.000000  -0.000000   0.000021
   65  CO 1 YYX   0.000001  -0.000001   0.000012  -0.000000   0.000000
   66  CO 1 YYZ  -0.000000   0.000000  -0.000000  -0.000000   0.000021
   67  CO 1 ZZX  -0.000000   0.000000  -0.000050  -0.000000   0.000000
   68  CO 1 ZZY  -0.000000   0.000000  -0.000000  -0.000050   0.000000
   69  CO 1 XYZ  -0.000000   0.000000  -0.000000  -0.000000   0.000000
   70  CO 1XXXX  -0.000000   0.000003  -0.000000  -0.000000   0.000000
   71  CO 1YYYY  -0.000000   0.000003  -0.000002  -0.000000   0.000000
   72  CO 1ZZZZ  -0.000000   0.000008  -0.000000  -0.000000   0.000000
   73  CO 1XXXY  -0.000000   0.000000  -0.000000  -0.000002   0.000000
   74  CO 1XXXZ  -0.000000   0.000000  -0.000000  -0.000000  -0.000002
   75  CO 1YYYX  -0.000000   0.000000  -0.000000   0.000001   0.000000
   76  CO 1YYYZ  -0.000000   0.000000  -0.000000  -0.000000   0.000000
   77  CO 1ZZZX  -0.000000   0.000000  -0.000000  -0.000000   0.000000
   78  CO 1ZZZY  -0.000000   0.000000  -0.000000  -0.000000   0.000000
   79  CO 1XXYY  -0.000000   0.000002   0.000002  -0.000000   0.000000
   80  CO 1XXZZ   0.000000  -0.000007  -0.000001  -0.000000   0.000000
   81  CO 1YYZZ   0.000000  -0.000007   0.000001  -0.000000   0.000000
   82  CO 1XXYZ  -0.000000   0.000000  -0.000000  -0.000000   0.000000
   83  CO 1YYXZ  -0.000000   0.000000  -0.000000  -0.000000   0.000003
   84  CO 1ZZXY  -0.000000   0.000000  -0.000000   0.000002   0.000000
   85  F  2  S   -0.000001   0.000004  -0.000020   0.000035   0.000000
   86  F  2  S   -0.000001   0.000033  -0.000056   0.000096   0.000000
   87  F  2  S   -0.000000   0.000008  -0.000016   0.000027   0.000000
   88  F  2  S    0.000002   0.000031  -0.000010   0.000018   0.000000
   89  F  2  X   -0.000000   0.000038   0.000010   0.000090   0.000000
   90  F  2  Y    0.000000  -0.000066   0.000090  -0.000094   0.000000
   91  F  2  Z   -0.000000   0.000000  -0.000000  -0.000000   0.000062
   92  F  2  X    0.000000   0.000046   0.000017   0.000107   0.000000
   93  F  2  Y   -0.000000  -0.000080   0.000107  -0.000106   0.000000
   94  F  2  Z   -0.000000   0.000000  -0.000000  -0.000000   0.000073
   95  F  2  X    0.000000   0.000040   0.000021   0.000063   0.000000
   96  F  2  Y   -0.000001  -0.000070   0.000063  -0.000053   0.000000
   97  F  2  Z   -0.000000   0.000000  -0.000000  -0.000000   0.000054
   98  F  2 XX    0.000000  -0.000001  -0.000000  -0.000001   0.000000
   99  F  2 YY   -0.000000   0.000004  -0.000000   0.000002   0.000000
  100  F  2 ZZ    0.000000  -0.000002   0.000001  -0.000001   0.000000
  101  F  2 XY    0.000001  -0.000005   0.000001  -0.000002   0.000000
  102  F  2 XZ   -0.000000   0.000000  -0.000000  -0.000000   0.000001
  103  F  2 YZ   -0.000000   0.000000  -0.000000  -0.000000  -0.000001
  104  F  2 XX   -0.000000   0.000002   0.000003   0.000003   0.000000
  105  F  2 YY    0.000001  -0.000004  -0.000001  -0.000006   0.000000
  106  F  2 ZZ   -0.000001   0.000002  -0.000002   0.000003   0.000000
  107  F  2 XY   -0.000002   0.000007  -0.000005   0.000004   0.000000
  108  F  2 XZ   -0.000000   0.000000  -0.000000  -0.000000  -0.000002
  109  F  2 YZ   -0.000000   0.000000  -0.000000  -0.000000   0.000003
  110  F  2 XXX  -0.000000   0.000004  -0.000000   0.000000   0.000000
  111  F  2 YYY  -0.000000   0.000002  -0.000000  -0.000000   0.000000
  112  F  2 ZZZ  -0.000000   0.000000  -0.000000  -0.000000   0.000001
  113  F  2 XXY  -0.000000   0.000001   0.000000   0.000000   0.000000
  114  F  2 XXZ  -0.000000   0.000000  -0.000000  -0.000000  -0.000000
  115  F  2 YYX   0.000001  -0.000007   0.000000  -0.000000   0.000000
  116  F  2 YYZ  -0.000000   0.000000  -0.000000  -0.000000  -0.000002
  117  F  2 ZZX  -0.000000   0.000002   0.000000   0.000000   0.000000
  118  F  2 ZZY   0.000000  -0.000004   0.000000   0.000000   0.000000
  119  F  2 XYZ  -0.000000   0.000000  -0.000000  -0.000000   0.000001
  120  F  3  S   -0.000001   0.000004  -0.000020  -0.000035   0.000000
  121  F  3  S   -0.000001   0.000033  -0.000056  -0.000096   0.000000
  122  F  3  S   -0.000000   0.000008  -0.000016  -0.000027   0.000000
  123  F  3  S    0.000002   0.000031  -0.000010  -0.000018   0.000000
  124  F  3  X   -0.000000   0.000038   0.000010  -0.000090   0.000000
  125  F  3  Y   -0.000000   0.000066  -0.000090  -0.000094   0.000000
  126  F  3  Z   -0.000000   0.000000  -0.000000  -0.000000   0.000062
  127  F  3  X    0.000000   0.000046   0.000017  -0.000107   0.000000
  128  F  3  Y    0.000000   0.000080  -0.000107  -0.000106   0.000000
  129  F  3  Z   -0.000000   0.000000  -0.000000  -0.000000   0.000073
  130  F  3  X    0.000000   0.000040   0.000021  -0.000063   0.000000
  131  F  3  Y    0.000001   0.000070  -0.000063  -0.000053   0.000000
  132  F  3  Z   -0.000000   0.000000  -0.000000  -0.000000   0.000054
  133  F  3 XX    0.000000  -0.000001  -0.000000   0.000001   0.000000
  134  F  3 YY   -0.000000   0.000004  -0.000000  -0.000002   0.000000
  135  F  3 ZZ    0.000000  -0.000002   0.000001   0.000001   0.000000
  136  F  3 XY   -0.000001   0.000005  -0.000001  -0.000002   0.000000
  137  F  3 XZ   -0.000000   0.000000  -0.000000  -0.000000   0.000001
  138  F  3 YZ   -0.000000   0.000000  -0.000000  -0.000000   0.000001
  139  F  3 XX   -0.000000   0.000002   0.000003  -0.000003   0.000000
  140  F  3 YY    0.000001  -0.000004  -0.000001   0.000006   0.000000
  141  F  3 ZZ   -0.000001   0.000002  -0.000002  -0.000003   0.000000
  142  F  3 XY    0.000002  -0.000007   0.000005   0.000004   0.000000
  143  F  3 XZ   -0.000000   0.000000  -0.000000  -0.000000  -0.000002
  144  F  3 YZ   -0.000000   0.000000  -0.000000  -0.000000  -0.000003
  145  F  3 XXX  -0.000000   0.000004  -0.000000  -0.000000   0.000000
  146  F  3 YYY   0.000000  -0.000002   0.000000  -0.000000   0.000000
  147  F  3 ZZZ  -0.000000   0.000000  -0.000000  -0.000000   0.000001
  148  F  3 XXY   0.000000  -0.000001  -0.000000   0.000000   0.000000
  149  F  3 XXZ  -0.000000   0.000000  -0.000000  -0.000000  -0.000000
  150  F  3 YYX   0.000001  -0.000007   0.000000   0.000000   0.000000
  151  F  3 YYZ  -0.000000   0.000000  -0.000000  -0.000000  -0.000002
  152  F  3 ZZX  -0.000000   0.000002   0.000000  -0.000000   0.000000
  153  F  3 ZZY  -0.000000   0.000004  -0.000000   0.000000   0.000000
  154  F  3 XYZ  -0.000000   0.000000  -0.000000  -0.000000  -0.000001
  155  F  4  S   -0.000001   0.000004   0.000040  -0.000000   0.000000
  156  F  4  S   -0.000001   0.000033   0.000111  -0.000000   0.000000
  157  F  4  S   -0.000000   0.000008   0.000032  -0.000000   0.000000
  158  F  4  S    0.000002   0.000031   0.000021  -0.000000   0.000000
  159  F  4  X    0.000000  -0.000076  -0.000146  -0.000000   0.000000
  160  F  4  Y   -0.000000   0.000000  -0.000000   0.000063   0.000000
  161  F  4  Z   -0.000000   0.000000  -0.000000  -0.000000   0.000062
  162  F  4  X   -0.000001  -0.000092  -0.000168  -0.000000   0.000000
  163  F  4  Y   -0.000000   0.000000  -0.000000   0.000079   0.000000
  164  F  4  Z   -0.000000   0.000000  -0.000000  -0.000000   0.000073
  165  F  4  X   -0.000001  -0.000081  -0.000089  -0.000000   0.000000
  166  F  4  Y   -0.000000   0.000000  -0.000000   0.000057   0.000000
  167  F  4  Z   -0.000000   0.000000  -0.000000  -0.000000   0.000054
  168  F  4 XX   -0.000001   0.000006   0.000003  -0.000000   0.000000
  169  F  4 YY    0.000000  -0.000004  -0.000002  -0.000000   0.000000
  170  F  4 ZZ    0.000000  -0.000002  -0.000001  -0.000000   0.000000
  171  F  4 XY   -0.000000   0.000000  -0.000000   0.000001   0.000000
  172  F  4 XZ   -0.000000   0.000000  -0.000000  -0.000000  -0.000002
  173  F  4 YZ   -0.000000   0.000000  -0.000000  -0.000000   0.000000
  174  F  4 XX    0.000002  -0.000008  -0.000008  -0.000000   0.000000
  175  F  4 YY   -0.000001   0.000006   0.000004  -0.000000   0.000000
  176  F  4 ZZ   -0.000001   0.000002   0.000004  -0.000000   0.000000
  177  F  4 XY   -0.000000   0.000000  -0.000000  -0.000005   0.000000
  178  F  4 XZ   -0.000000   0.000000  -0.000000  -0.000000   0.000004
  179  F  4 YZ   -0.000000   0.000000  -0.000000  -0.000000   0.000000
  180  F  4 XXX  -0.000001   0.000007   0.000000  -0.000000   0.000000
  181  F  4 YYY  -0.000000   0.000000  -0.000000   0.000000   0.000000
  182  F  4 ZZZ  -0.000000   0.000000  -0.000000  -0.000000   0.000001
  183  F  4 XXY  -0.000000   0.000000  -0.000000  -0.000000   0.000000
  184  F  4 XXZ  -0.000000   0.000000  -0.000000  -0.000000  -0.000002
  185  F  4 YYX   0.000001  -0.000006  -0.000000  -0.000000   0.000000
  186  F  4 YYZ  -0.000000   0.000000  -0.000000  -0.000000   0.000001
  187  F  4 ZZX   0.000001  -0.000004   0.000000  -0.000000   0.000000
  188  F  4 ZZY  -0.000000   0.000000  -0.000000   0.000000   0.000000
  189  F  4 XYZ  -0.000000   0.000000  -0.000000  -0.000000   0.000000

                      6          7          8          9         10
                  -26.5957   -26.5957   -26.5957    -4.8510    -3.2398
                     A1'        E'         E'         A1'        E'  
    1  CO 1  S   -0.000066  -0.000000   0.000000  -0.000126  -0.000000
    2  CO 1  S   -0.000194  -0.000000   0.000000  -0.001982  -0.000000
    3  CO 1  S   -0.000946  -0.000000   0.000000   0.993079  -0.000000
    4  CO 1  S   -0.002017  -0.000000   0.000000  -0.024396  -0.000000
    5  CO 1  S    0.000161  -0.000000   0.000000  -0.005254  -0.000000
    6  CO 1  S   -0.000188  -0.000000   0.000000  -0.021072  -0.000000
    7  CO 1  S    0.000372  -0.000000   0.000000  -0.000132  -0.000000
    8  CO 1  X    0.000000  -0.000085   0.000000   0.000000  -0.001974
    9  CO 1  Y    0.000000  -0.000000   0.000085   0.000000  -0.000000
   10  CO 1  Z    0.000000  -0.000000   0.000000   0.000000  -0.000000
   11  CO 1  X    0.000000  -0.000478   0.000000   0.000000   0.992363
   12  CO 1  Y    0.000000  -0.000000   0.000478   0.000000  -0.000000
   13  CO 1  Z    0.000000  -0.000000   0.000000   0.000000  -0.000000
   14  CO 1  X    0.000000   0.006008   0.000000   0.000000   0.077254
   15  CO 1  Y    0.000000  -0.000000  -0.006008   0.000000  -0.000000
   16  CO 1  Z    0.000000  -0.000000   0.000000   0.000000  -0.000000
   17  CO 1  X    0.000000   0.004712   0.000000   0.000000   0.058725
   18  CO 1  Y    0.000000  -0.000000  -0.004712   0.000000  -0.000000
   19  CO 1  Z    0.000000  -0.000000   0.000000   0.000000  -0.000000
   20  CO 1  X    0.000000  -0.000308   0.000000   0.000000  -0.025621
   21  CO 1  Y    0.000000  -0.000000   0.000308   0.000000  -0.000000
   22  CO 1  Z    0.000000  -0.000000   0.000000   0.000000  -0.000000
   23  CO 1  X    0.000000   0.000138   0.000000   0.000000   0.000750
   24  CO 1  Y    0.000000  -0.000000  -0.000138   0.000000  -0.000000
   25  CO 1  Z    0.000000  -0.000000   0.000000   0.000000  -0.000000
   26  CO 1 XX   -0.000016   0.000035   0.000000  -0.002495  -0.006283
   27  CO 1 YY   -0.000016  -0.000035   0.000000  -0.002495   0.006283
   28  CO 1 ZZ    0.000031  -0.000000   0.000000   0.004989  -0.000000
   29  CO 1 XY    0.000000  -0.000000   0.000040   0.000000  -0.000000
   30  CO 1 XZ    0.000000  -0.000000   0.000000   0.000000  -0.000000
   31  CO 1 YZ    0.000000  -0.000000   0.000000   0.000000  -0.000000
   32  CO 1 XX   -0.000033   0.000007   0.000000   0.001081   0.003073
   33  CO 1 YY   -0.000033  -0.000007   0.000000   0.001081  -0.003073
   34  CO 1 ZZ    0.000066  -0.000000   0.000000  -0.002161  -0.000000
   35  CO 1 XY    0.000000  -0.000000   0.000008   0.000000  -0.000000
   36  CO 1 XZ    0.000000  -0.000000   0.000000   0.000000  -0.000000
   37  CO 1 YZ    0.000000  -0.000000   0.000000   0.000000  -0.000000
   38  CO 1 XX   -0.000004   0.000026   0.000000   0.000685   0.000643
   39  CO 1 YY   -0.000004  -0.000026   0.000000   0.000685  -0.000643
   40  CO 1 ZZ    0.000009  -0.000000   0.000000  -0.001371  -0.000000
   41  CO 1 XY    0.000000  -0.000000   0.000030   0.000000  -0.000000
   42  CO 1 XZ    0.000000  -0.000000   0.000000   0.000000  -0.000000
   43  CO 1 YZ    0.000000  -0.000000   0.000000   0.000000  -0.000000
   44  CO 1 XX   -0.000188  -0.000606   0.000000  -0.000152  -0.000634
   45  CO 1 YY   -0.000188   0.000606   0.000000  -0.000152   0.000634
   46  CO 1 ZZ    0.000376  -0.000000   0.000000   0.000304  -0.000000
   47  CO 1 XY    0.000000  -0.000000  -0.000699   0.000000  -0.000000
   48  CO 1 XZ    0.000000  -0.000000   0.000000   0.000000  -0.000000
   49  CO 1 YZ    0.000000  -0.000000   0.000000   0.000000  -0.000000
   50  CO 1 XXX  -0.000029  -0.000011   0.000000  -0.000239  -0.000523
   51  CO 1 YYY   0.000000  -0.000000   0.000011   0.000000  -0.000000
   52  CO 1 ZZZ   0.000000  -0.000000   0.000000   0.000000  -0.000000
   53  CO 1 XXY   0.000000  -0.000000   0.000005   0.000000  -0.000000
   54  CO 1 XXZ   0.000000  -0.000000   0.000000   0.000000  -0.000000
   55  CO 1 YYX   0.000039  -0.000005   0.000000   0.000320  -0.000234
   56  CO 1 YYZ   0.000000  -0.000000   0.000000   0.000000  -0.000000
   57  CO 1 ZZX   0.000000   0.000020   0.000000   0.000000   0.000936
   58  CO 1 ZZY   0.000000  -0.000000  -0.000020   0.000000  -0.000000
   59  CO 1 XYZ   0.000000  -0.000000   0.000000   0.000000  -0.000000
   60  CO 1 XXX   0.000092   0.000035   0.000000  -0.000102  -0.000439
   61  CO 1 YYY   0.000000  -0.000000  -0.000035   0.000000  -0.000000
   62  CO 1 ZZZ   0.000000  -0.000000   0.000000   0.000000  -0.000000
   63  CO 1 XXY   0.000000  -0.000000  -0.000016   0.000000  -0.000000
   64  CO 1 XXZ   0.000000  -0.000000   0.000000   0.000000  -0.000000
   65  CO 1 YYX  -0.000124   0.000016   0.000000   0.000136  -0.000196
   66  CO 1 YYZ   0.000000  -0.000000   0.000000   0.000000  -0.000000
   67  CO 1 ZZX   0.000000  -0.000063   0.000000   0.000000   0.000786
   68  CO 1 ZZY   0.000000  -0.000000   0.000063   0.000000  -0.000000
   69  CO 1 XYZ   0.000000  -0.000000   0.000000   0.000000  -0.000000
   70  CO 1XXXX   0.000005   0.000021   0.000000   0.000033   0.000011
   71  CO 1YYYY   0.000005   0.000006   0.000000   0.000033  -0.000062
   72  CO 1ZZZZ   0.000012  -0.000000   0.000000   0.000087  -0.000000
   73  CO 1XXXY   0.000000  -0.000000  -0.000014   0.000000  -0.000000
   74  CO 1XXXZ   0.000000  -0.000000   0.000000   0.000000  -0.000000
   75  CO 1YYYX   0.000000  -0.000000   0.000026   0.000000  -0.000000
   76  CO 1YYYZ   0.000000  -0.000000   0.000000   0.000000  -0.000000
   77  CO 1ZZZX   0.000000  -0.000000   0.000000   0.000000  -0.000000
   78  CO 1ZZZY   0.000000  -0.000000   0.000000   0.000000  -0.000000
   79  CO 1XXYY   0.000003  -0.000023   0.000000   0.000019   0.000045
   80  CO 1XXZZ  -0.000011  -0.000013   0.000000  -0.000076  -0.000064
   81  CO 1YYZZ  -0.000011   0.000013   0.000000  -0.000076   0.000064
   82  CO 1XXYZ   0.000000  -0.000000   0.000000   0.000000  -0.000000
   83  CO 1YYXZ   0.000000  -0.000000   0.000000   0.000000  -0.000000
   84  CO 1ZZXY   0.000000  -0.000000  -0.000015   0.000000  -0.000000
   85  F  2  S    0.563249  -0.398273  -0.689830  -0.000111   0.000239
   86  F  2  S   -0.000712   0.000511   0.000886   0.002607  -0.008847
   87  F  2  S    0.025054  -0.017715  -0.030683   0.000513  -0.002187
   88  F  2  S    0.002362  -0.001783  -0.003089   0.001952  -0.005519
   89  F  2  X    0.000288  -0.000204  -0.000343   0.000927  -0.000034
   90  F  2  Y   -0.000499   0.000343   0.000601  -0.001606   0.005247
   91  F  2  Z    0.000000  -0.000000   0.000000   0.000000  -0.000000
   92  F  2  X   -0.000175   0.000131   0.000186   0.001506  -0.000373
   93  F  2  Y    0.000303  -0.000186  -0.000346  -0.002608   0.007496
   94  F  2  Z    0.000000  -0.000000   0.000000   0.000000  -0.000000
   95  F  2  X    0.000290  -0.000209  -0.000267   0.000783   0.000289
   96  F  2  Y   -0.000503   0.000267   0.000518  -0.001356   0.003703
   97  F  2  Z    0.000000  -0.000000   0.000000   0.000000  -0.000000
   98  F  2 XX    0.000001  -0.000012  -0.000008  -0.000017   0.000085
   99  F  2 YY   -0.000020   0.000013   0.000010   0.000082  -0.000202
  100  F  2 ZZ    0.000019  -0.000001  -0.000001  -0.000064   0.000118
  101  F  2 XY    0.000021  -0.000011  -0.000027  -0.000099   0.000141
  102  F  2 XZ    0.000000  -0.000000   0.000000   0.000000  -0.000000
  103  F  2 YZ    0.000000  -0.000000   0.000000   0.000000  -0.000000
  104  F  2 XX    0.000014   0.000024   0.000003  -0.000098   0.000720
  105  F  2 YY    0.000029  -0.000016   0.000012   0.000450  -0.001364
  106  F  2 ZZ   -0.000043  -0.000009  -0.000015  -0.000351   0.000645
  107  F  2 XY   -0.000015  -0.000005   0.000018  -0.000548   0.000645
  108  F  2 XZ    0.000000  -0.000000   0.000000   0.000000  -0.000000
  109  F  2 YZ    0.000000  -0.000000   0.000000   0.000000  -0.000000
  110  F  2 XXX  -0.000000   0.000004   0.000006  -0.000060   0.000157
  111  F  2 YYY  -0.000003   0.000003   0.000000  -0.000039   0.000253
  112  F  2 ZZZ   0.000000  -0.000000   0.000000   0.000000  -0.000000
  113  F  2 XXY  -0.000001  -0.000002   0.000002  -0.000017  -0.000147
  114  F  2 XXZ   0.000000  -0.000000   0.000000   0.000000  -0.000000
  115  F  2 YYX   0.000003  -0.000005  -0.000009   0.000121  -0.000265
  116  F  2 YYZ   0.000000  -0.000000   0.000000   0.000000  -0.000000
  117  F  2 ZZX  -0.000003   0.000001   0.000002  -0.000040   0.000054
  118  F  2 ZZY   0.000005  -0.000002  -0.000002   0.000070  -0.000193
  119  F  2 XYZ   0.000000  -0.000000   0.000000   0.000000  -0.000000
  120  F  3  S    0.563249  -0.398273   0.689830  -0.000111   0.000239
  121  F  3  S   -0.000712   0.000511  -0.000886   0.002607  -0.008847
  122  F  3  S    0.025054  -0.017715   0.030683   0.000513  -0.002187
  123  F  3  S    0.002362  -0.001783   0.003089   0.001952  -0.005519
  124  F  3  X    0.000288  -0.000204   0.000343   0.000927  -0.000034
  125  F  3  Y    0.000499  -0.000343   0.000601   0.001606  -0.005247
  126  F  3  Z    0.000000  -0.000000   0.000000   0.000000  -0.000000
  127  F  3  X   -0.000175   0.000131  -0.000186   0.001506  -0.000373
  128  F  3  Y   -0.000303   0.000186  -0.000346   0.002608  -0.007496
  129  F  3  Z    0.000000  -0.000000   0.000000   0.000000  -0.000000
  130  F  3  X    0.000290  -0.000209   0.000267   0.000783   0.000289
  131  F  3  Y    0.000503  -0.000267   0.000518   0.001356  -0.003703
  132  F  3  Z    0.000000  -0.000000   0.000000   0.000000  -0.000000
  133  F  3 XX    0.000001  -0.000012   0.000008  -0.000017   0.000085
  134  F  3 YY   -0.000020   0.000013  -0.000010   0.000082  -0.000202
  135  F  3 ZZ    0.000019  -0.000001   0.000001  -0.000064   0.000118
  136  F  3 XY   -0.000021   0.000011  -0.000027   0.000099  -0.000141
  137  F  3 XZ    0.000000  -0.000000   0.000000   0.000000  -0.000000
  138  F  3 YZ    0.000000  -0.000000   0.000000   0.000000  -0.000000
  139  F  3 XX    0.000014   0.000024  -0.000003  -0.000098   0.000720
  140  F  3 YY    0.000029  -0.000016  -0.000012   0.000450  -0.001364
  141  F  3 ZZ   -0.000043  -0.000009   0.000015  -0.000351   0.000645
  142  F  3 XY    0.000015   0.000005   0.000018   0.000548  -0.000645
  143  F  3 XZ    0.000000  -0.000000   0.000000   0.000000  -0.000000
  144  F  3 YZ    0.000000  -0.000000   0.000000   0.000000  -0.000000
  145  F  3 XXX  -0.000000   0.000004  -0.000006  -0.000060   0.000157
  146  F  3 YYY   0.000003  -0.000003   0.000000   0.000039  -0.000253
  147  F  3 ZZZ   0.000000  -0.000000   0.000000   0.000000  -0.000000
  148  F  3 XXY   0.000001   0.000002   0.000002   0.000017   0.000147
  149  F  3 XXZ   0.000000  -0.000000   0.000000   0.000000  -0.000000
  150  F  3 YYX   0.000003  -0.000005   0.000009   0.000121  -0.000265
  151  F  3 YYZ   0.000000  -0.000000   0.000000   0.000000  -0.000000
  152  F  3 ZZX  -0.000003   0.000001  -0.000002  -0.000040   0.000054
  153  F  3 ZZY  -0.000005   0.000002  -0.000002  -0.000070   0.000193
  154  F  3 XYZ   0.000000  -0.000000   0.000000   0.000000  -0.000000
  155  F  4  S    0.563249   0.796547   0.000000  -0.000111  -0.000479
  156  F  4  S   -0.000712  -0.001023   0.000000   0.002607   0.017694
  157  F  4  S    0.025054   0.035430   0.000000   0.000513   0.004373
  158  F  4  S    0.002362   0.003567   0.000000   0.001952   0.011038
  159  F  4  X   -0.000576  -0.000799   0.000000  -0.001854  -0.009122
  160  F  4  Y    0.000000  -0.000000   0.000006   0.000000  -0.000000
  161  F  4  Z    0.000000  -0.000000   0.000000   0.000000  -0.000000
  162  F  4  X    0.000350   0.000454   0.000000  -0.003011  -0.013356
  163  F  4  Y    0.000000  -0.000000  -0.000024   0.000000  -0.000000
  164  F  4  Z    0.000000  -0.000000   0.000000   0.000000  -0.000000
  165  F  4  X   -0.000580  -0.000672   0.000000  -0.001566  -0.006125
  166  F  4  Y    0.000000  -0.000000   0.000055   0.000000  -0.000000
  167  F  4  Z    0.000000  -0.000000   0.000000   0.000000  -0.000000
  168  F  4 XX   -0.000030  -0.000030   0.000000   0.000131   0.000472
  169  F  4 YY    0.000011   0.000028   0.000000  -0.000067  -0.000237
  170  F  4 ZZ    0.000019   0.000002   0.000000  -0.000064  -0.000235
  171  F  4 XY    0.000000  -0.000000  -0.000009   0.000000  -0.000000
  172  F  4 XZ    0.000000  -0.000000   0.000000   0.000000  -0.000000
  173  F  4 YZ    0.000000  -0.000000   0.000000   0.000000  -0.000000
  174  F  4 XX    0.000036   0.000004   0.000000   0.000724   0.002655
  175  F  4 YY    0.000007  -0.000021   0.000000  -0.000372  -0.001365
  176  F  4 ZZ   -0.000043   0.000017   0.000000  -0.000351  -0.001290
  177  F  4 XY    0.000000  -0.000000   0.000026   0.000000  -0.000000
  178  F  4 XZ    0.000000  -0.000000   0.000000   0.000000  -0.000000
  179  F  4 YZ    0.000000  -0.000000   0.000000   0.000000  -0.000000
  180  F  4 XXX  -0.000005  -0.000010   0.000000  -0.000128  -0.000592
  181  F  4 YYY   0.000000  -0.000000   0.000002   0.000000  -0.000000
  182  F  4 ZZZ   0.000000  -0.000000   0.000000   0.000000  -0.000000
  183  F  4 XXY   0.000000  -0.000000  -0.000003   0.000000  -0.000000
  184  F  4 XXZ   0.000000  -0.000000   0.000000   0.000000  -0.000000
  185  F  4 YYX   0.000001   0.000009   0.000000   0.000091   0.000406
  186  F  4 YYZ   0.000000  -0.000000   0.000000   0.000000  -0.000000
  187  F  4 ZZX   0.000005   0.000003   0.000000   0.000080   0.000388
  188  F  4 ZZY   0.000000  -0.000000   0.000000   0.000000  -0.000000
  189  F  4 XYZ   0.000000  -0.000000   0.000000   0.000000  -0.000000

                     11         12         13         14         15
                   -3.2398    -3.2202    -1.8270    -1.8147    -1.8147
                     E'         A2"        A1'        E'         E'  
    1  CO 1  S   -0.000000  -0.000000  -0.004101  -0.000000   0.000000
    2  CO 1  S   -0.000000  -0.000000  -0.012099  -0.000000   0.000000
    3  CO 1  S   -0.000000  -0.000000  -0.087288  -0.000000   0.000000
    4  CO 1  S   -0.000000  -0.000000  -0.034170  -0.000000   0.000000
    5  CO 1  S   -0.000000  -0.000000   0.069552  -0.000000   0.000000
    6  CO 1  S   -0.000000  -0.000000  -0.014131  -0.000000   0.000000
    7  CO 1  S   -0.000000  -0.000000   0.022711  -0.000000   0.000000
    8  CO 1  X   -0.000000  -0.000000  -0.000000  -0.002534   0.000000
    9  CO 1  Y   -0.001974  -0.000000  -0.000000  -0.000000   0.002534
   10  CO 1  Z   -0.000000  -0.001561  -0.000000  -0.000000   0.000000
   11  CO 1  X   -0.000000  -0.000000  -0.000000  -0.097404   0.000000
   12  CO 1  Y    0.992363  -0.000000  -0.000000  -0.000000   0.097404
   13  CO 1  Z   -0.000000   0.998543  -0.000000  -0.000000   0.000000
   14  CO 1  X   -0.000000  -0.000000  -0.000000   0.235032   0.000000
   15  CO 1  Y    0.077254  -0.000000  -0.000000  -0.000000  -0.235032
   16  CO 1  Z   -0.000000   0.032413  -0.000000  -0.000000   0.000000
   17  CO 1  X   -0.000000  -0.000000  -0.000000   0.266625   0.000000
   18  CO 1  Y    0.058725  -0.000000  -0.000000  -0.000000  -0.266625
   19  CO 1  Z   -0.000000   0.011582  -0.000000  -0.000000   0.000000
   20  CO 1  X   -0.000000  -0.000000  -0.000000  -0.005139   0.000000
   21  CO 1  Y   -0.025621  -0.000000  -0.000000  -0.000000   0.005139
   22  CO 1  Z   -0.000000  -0.021710  -0.000000  -0.000000   0.000000
   23  CO 1  X   -0.000000  -0.000000  -0.000000   0.006362   0.000000
   24  CO 1  Y    0.000750  -0.000000  -0.000000  -0.000000  -0.006362
   25  CO 1  Z   -0.000000   0.000421  -0.000000  -0.000000   0.000000
   26  CO 1 XX   -0.000000  -0.000000   0.028617   0.067415   0.000000
   27  CO 1 YY   -0.000000  -0.000000   0.028617  -0.067415   0.000000
   28  CO 1 ZZ   -0.000000  -0.000000  -0.057234  -0.000000   0.000000
   29  CO 1 XY    0.007255  -0.000000  -0.000000  -0.000000   0.077844
   30  CO 1 XZ   -0.000000  -0.000000  -0.000000  -0.000000   0.000000
   31  CO 1 YZ   -0.000000  -0.000000  -0.000000  -0.000000   0.000000
   32  CO 1 XX   -0.000000  -0.000000   0.002800   0.010266   0.000000
   33  CO 1 YY   -0.000000  -0.000000   0.002800  -0.010266   0.000000
   34  CO 1 ZZ   -0.000000  -0.000000  -0.005599  -0.000000   0.000000
   35  CO 1 XY   -0.003548  -0.000000  -0.000000  -0.000000   0.011855
   36  CO 1 XZ   -0.000000  -0.000000  -0.000000  -0.000000   0.000000
   37  CO 1 YZ   -0.000000  -0.000000  -0.000000  -0.000000   0.000000
   38  CO 1 XX   -0.000000  -0.000000  -0.000172   0.001992   0.000000
   39  CO 1 YY   -0.000000  -0.000000  -0.000172  -0.001992   0.000000
   40  CO 1 ZZ   -0.000000  -0.000000   0.000344  -0.000000   0.000000
   41  CO 1 XY   -0.000743  -0.000000  -0.000000  -0.000000   0.002300
   42  CO 1 XZ   -0.000000  -0.000000  -0.000000  -0.000000   0.000000
   43  CO 1 YZ   -0.000000  -0.000000  -0.000000  -0.000000   0.000000
   44  CO 1 XX   -0.000000  -0.000000  -0.001881  -0.002453   0.000000
   45  CO 1 YY   -0.000000  -0.000000  -0.001881   0.002453   0.000000
   46  CO 1 ZZ   -0.000000  -0.000000   0.003762  -0.000000   0.000000
   47  CO 1 XY    0.000732  -0.000000  -0.000000  -0.000000  -0.002833
   48  CO 1 XZ   -0.000000  -0.000000  -0.000000  -0.000000   0.000000
   49  CO 1 YZ   -0.000000  -0.000000  -0.000000  -0.000000   0.000000
   50  CO 1 XXX  -0.000000  -0.000000   0.000442   0.000224   0.000000
   51  CO 1 YYY  -0.000523  -0.000000  -0.000000  -0.000000  -0.000224
   52  CO 1 ZZZ  -0.000000   0.001486  -0.000000  -0.000000   0.000000
   53  CO 1 XXY  -0.000234  -0.000000  -0.000000  -0.000000  -0.000100
   54  CO 1 XXZ  -0.000000  -0.000997  -0.000000  -0.000000   0.000000
   55  CO 1 YYX  -0.000000  -0.000000  -0.000594   0.000100   0.000000
   56  CO 1 YYZ  -0.000000  -0.000997  -0.000000  -0.000000   0.000000
   57  CO 1 ZZX  -0.000000  -0.000000  -0.000000  -0.000401   0.000000
   58  CO 1 ZZY   0.000936  -0.000000  -0.000000  -0.000000   0.000401
   59  CO 1 XYZ  -0.000000  -0.000000  -0.000000  -0.000000   0.000000
   60  CO 1 XXX  -0.000000  -0.000000   0.009050   0.003838   0.000000
   61  CO 1 YYY  -0.000439  -0.000000  -0.000000  -0.000000  -0.003838
   62  CO 1 ZZZ  -0.000000   0.002251  -0.000000  -0.000000   0.000000
   63  CO 1 XXY  -0.000196  -0.000000  -0.000000  -0.000000  -0.001716
   64  CO 1 XXZ  -0.000000  -0.001510  -0.000000  -0.000000   0.000000
   65  CO 1 YYX  -0.000000  -0.000000  -0.012142   0.001716   0.000000
   66  CO 1 YYZ  -0.000000  -0.001510  -0.000000  -0.000000   0.000000
   67  CO 1 ZZX  -0.000000  -0.000000  -0.000000  -0.006865   0.000000
   68  CO 1 ZZY   0.000786  -0.000000  -0.000000  -0.000000   0.006865
   69  CO 1 XYZ  -0.000000  -0.000000  -0.000000  -0.000000   0.000000
   70  CO 1XXXX  -0.000000  -0.000000   0.000146   0.000792   0.000000
   71  CO 1YYYY  -0.000000  -0.000000   0.000146   0.000297   0.000000
   72  CO 1ZZZZ  -0.000000  -0.000000   0.000390  -0.000000   0.000000
   73  CO 1XXXY  -0.000067  -0.000000  -0.000000  -0.000000  -0.000636
   74  CO 1XXXZ  -0.000000  -0.000081  -0.000000  -0.000000   0.000000
   75  CO 1YYYX   0.000011  -0.000000  -0.000000  -0.000000   0.001010
   76  CO 1YYYZ  -0.000000  -0.000000  -0.000000  -0.000000   0.000000
   77  CO 1ZZZX  -0.000000  -0.000000  -0.000000  -0.000000   0.000000
   78  CO 1ZZZY  -0.000000  -0.000000  -0.000000  -0.000000   0.000000
   79  CO 1XXYY  -0.000000  -0.000000   0.000086  -0.000956   0.000000
   80  CO 1XXZZ  -0.000000  -0.000000  -0.000342  -0.000435   0.000000
   81  CO 1YYZZ  -0.000000  -0.000000  -0.000342   0.000435   0.000000
   82  CO 1XXYZ  -0.000000  -0.000000  -0.000000  -0.000000   0.000000
   83  CO 1YYXZ  -0.000000   0.000109  -0.000000  -0.000000   0.000000
   84  CO 1ZZXY   0.000074  -0.000000  -0.000000  -0.000000  -0.000502
   85  F  2  S   -0.000414  -0.000000  -0.001841   0.000955   0.001654
   86  F  2  S    0.015324  -0.000000   0.321691  -0.229974  -0.398326
   87  F  2  S    0.003788  -0.000000   0.091943  -0.065802  -0.113972
   88  F  2  S    0.009560  -0.000000   0.214883  -0.151362  -0.262166
   89  F  2  X    0.005247  -0.000000   0.005740  -0.003406  -0.005400
   90  F  2  Y   -0.006093  -0.000000  -0.009943   0.005400   0.009641
   91  F  2  Z   -0.000000   0.002721  -0.000000  -0.000000   0.000000
   92  F  2  X    0.007496  -0.000000   0.012269  -0.007185  -0.012056
   93  F  2  Y   -0.009028  -0.000000  -0.021250   0.012056   0.021106
   94  F  2  Z   -0.000000   0.003600  -0.000000  -0.000000   0.000000
   95  F  2  X    0.003703  -0.000000   0.008012  -0.003900  -0.008259
   96  F  2  Y   -0.003987  -0.000000  -0.013876   0.008259   0.013436
   97  F  2  Z   -0.000000   0.002241  -0.000000  -0.000000   0.000000
   98  F  2 XX   -0.000020  -0.000000   0.000016  -0.000109   0.000107
   99  F  2 YY    0.000224  -0.000000   0.000122  -0.000001  -0.000297
  100  F  2 ZZ   -0.000204  -0.000000  -0.000138   0.000110   0.000190
  101  F  2 XY   -0.000328  -0.000000  -0.000106   0.000233   0.000207
  102  F  2 XZ   -0.000000   0.000040  -0.000000  -0.000000   0.000000
  103  F  2 YZ   -0.000000  -0.000069  -0.000000  -0.000000   0.000000
  104  F  2 XX   -0.000001  -0.000000  -0.001052   0.001063   0.000659
  105  F  2 YY    0.001117  -0.000000   0.004275  -0.002793  -0.003655
  106  F  2 ZZ   -0.001117  -0.000000  -0.003223   0.001730   0.002997
  107  F  2 XY   -0.001948  -0.000000  -0.005327   0.002491   0.005102
  108  F  2 XZ   -0.000000   0.000390  -0.000000  -0.000000   0.000000
  109  F  2 YZ   -0.000000  -0.000676  -0.000000  -0.000000   0.000000
  110  F  2 XXX  -0.000216  -0.000000  -0.000474   0.000274   0.000460
  111  F  2 YYY  -0.000071  -0.000000  -0.000286   0.000202   0.000291
  112  F  2 ZZZ  -0.000000  -0.000128  -0.000000  -0.000000   0.000000
  113  F  2 XXY  -0.000182  -0.000000  -0.000128   0.000052   0.000153
  114  F  2 XXZ  -0.000000   0.000013  -0.000000  -0.000000   0.000000
  115  F  2 YYX   0.000483  -0.000000   0.000931  -0.000539  -0.000940
  116  F  2 YYZ  -0.000000   0.000159  -0.000000  -0.000000   0.000000
  117  F  2 ZZX  -0.000193  -0.000000  -0.000295   0.000172   0.000322
  118  F  2 ZZY   0.000277  -0.000000   0.000512  -0.000322  -0.000544
  119  F  2 XYZ  -0.000000  -0.000147  -0.000000  -0.000000   0.000000
  120  F  3  S    0.000414  -0.000000  -0.001841   0.000955  -0.001654
  121  F  3  S   -0.015324  -0.000000   0.321691  -0.229974   0.398326
  122  F  3  S   -0.003788  -0.000000   0.091943  -0.065802   0.113972
  123  F  3  S   -0.009560  -0.000000   0.214883  -0.151362   0.262166
  124  F  3  X   -0.005247  -0.000000   0.005740  -0.003406   0.005400
  125  F  3  Y   -0.006093  -0.000000   0.009943  -0.005400   0.009641
  126  F  3  Z   -0.000000   0.002721  -0.000000  -0.000000   0.000000
  127  F  3  X   -0.007496  -0.000000   0.012269  -0.007185   0.012056
  128  F  3  Y   -0.009028  -0.000000   0.021250  -0.012056   0.021106
  129  F  3  Z   -0.000000   0.003600  -0.000000  -0.000000   0.000000
  130  F  3  X   -0.003703  -0.000000   0.008012  -0.003900   0.008259
  131  F  3  Y   -0.003987  -0.000000   0.013876  -0.008259   0.013436
  132  F  3  Z   -0.000000   0.002241  -0.000000  -0.000000   0.000000
  133  F  3 XX    0.000020  -0.000000   0.000016  -0.000109  -0.000107
  134  F  3 YY   -0.000224  -0.000000   0.000122  -0.000001   0.000297
  135  F  3 ZZ    0.000204  -0.000000  -0.000138   0.000110  -0.000190
  136  F  3 XY   -0.000328  -0.000000   0.000106  -0.000233   0.000207
  137  F  3 XZ   -0.000000   0.000040  -0.000000  -0.000000   0.000000
  138  F  3 YZ   -0.000000   0.000069  -0.000000  -0.000000   0.000000
  139  F  3 XX    0.000001  -0.000000  -0.001052   0.001063  -0.000659
  140  F  3 YY   -0.001117  -0.000000   0.004275  -0.002793   0.003655
  141  F  3 ZZ    0.001117  -0.000000  -0.003223   0.001730  -0.002997
  142  F  3 XY   -0.001948  -0.000000   0.005327  -0.002491   0.005102
  143  F  3 XZ   -0.000000   0.000390  -0.000000  -0.000000   0.000000
  144  F  3 YZ   -0.000000   0.000676  -0.000000  -0.000000   0.000000
  145  F  3 XXX   0.000216  -0.000000  -0.000474   0.000274  -0.000460
  146  F  3 YYY  -0.000071  -0.000000   0.000286  -0.000202   0.000291
  147  F  3 ZZZ  -0.000000  -0.000128  -0.000000  -0.000000   0.000000
  148  F  3 XXY  -0.000182  -0.000000   0.000128  -0.000052   0.000153
  149  F  3 XXZ  -0.000000   0.000013  -0.000000  -0.000000   0.000000
  150  F  3 YYX  -0.000483  -0.000000   0.000931  -0.000539   0.000940
  151  F  3 YYZ  -0.000000   0.000159  -0.000000  -0.000000   0.000000
  152  F  3 ZZX   0.000193  -0.000000  -0.000295   0.000172  -0.000322
  153  F  3 ZZY   0.000277  -0.000000  -0.000512   0.000322  -0.000544
  154  F  3 XYZ  -0.000000   0.000147  -0.000000  -0.000000   0.000000
  155  F  4  S   -0.000000  -0.000000  -0.001841  -0.001910   0.000000
  156  F  4  S   -0.000000  -0.000000   0.321691   0.459947   0.000000
  157  F  4  S   -0.000000  -0.000000   0.091943   0.131604   0.000000
  158  F  4  S   -0.000000  -0.000000   0.214883   0.302723   0.000000
  159  F  4  X   -0.000000  -0.000000  -0.011481  -0.012759   0.000000
[...]
  160  F  4  Y   -0.000000   0.000000  -0.007102
  161  F  4  Z   -0.000000   0.000000  -0.000000
  162  F  4  X   -0.098568  -0.033995  -0.000000
  163  F  4  Y   -0.000000   0.000000   0.019527
  164  F  4  Z   -0.000000   0.000000  -0.000000
  165  F  4  X    0.692750   0.892518  -0.000000
  166  F  4  Y   -0.000000   0.000000  -0.089463
  167  F  4  Z   -0.000000   0.000000  -0.000000
  168  F  4 XX    0.226487   0.266086  -0.000000
  169  F  4 YY   -0.074580  -0.176132  -0.000000
  170  F  4 ZZ   -0.151907  -0.089954  -0.000000
  171  F  4 XY   -0.000000   0.000000  -0.004108
  172  F  4 XZ   -0.000000   0.000000  -0.000000
  173  F  4 YZ   -0.000000   0.000000  -0.000000
  174  F  4 XX   -0.309597  -0.384810  -0.000000
  175  F  4 YY    0.108590   0.243543  -0.000000
  176  F  4 ZZ    0.201007   0.141267  -0.000000
  177  F  4 XY   -0.000000   0.000000   0.015780
  178  F  4 XZ   -0.000000   0.000000  -0.000000
  179  F  4 YZ   -0.000000   0.000000  -0.000000
  180  F  4 XXX   0.071208   0.083143  -0.000000
  181  F  4 YYY  -0.000000   0.000000   0.006619
  182  F  4 ZZZ  -0.000000   0.000000  -0.000000
  183  F  4 XXY  -0.000000   0.000000  -0.012663
  184  F  4 XXZ  -0.000000   0.000000  -0.000000
  185  F  4 YYX  -0.035037  -0.067701  -0.000000
  186  F  4 YYZ  -0.000000   0.000000  -0.000000
  187  F  4 ZZX  -0.060499  -0.043846  -0.000000
  188  F  4 ZZY  -0.000000   0.000000   0.003783
  189  F  4 XYZ  -0.000000   0.000000  -0.000000
 ...... END OF ROHF CALCULATION ......
 CPU     0: STEP CPU TIME=  9457.94 TOTAL CPU TIME=       9458.5 (    157.6 MIN)
 TOTAL WALL CLOCK TIME=       9459.1 SECONDS, CPU UTILIZATION IS    99.99%

     ----------------------------------------------------------------
     PROPERTY VALUES FOR THE ROHF  SELF-CONSISTENT FIELD WAVEFUNCTION
     ----------------------------------------------------------------

          -----------------
          ENERGY COMPONENTS
          -----------------

         WAVEFUNCTION NORMALIZATION =       1.0000000000

                ONE ELECTRON ENERGY =   -2842.0159587016
                TWO ELECTRON ENERGY =     894.4481376926
           NUCLEAR REPULSION ENERGY =     268.2284123203
                                      ------------------
                       TOTAL ENERGY =   -1679.3394086887

 ELECTRON-ELECTRON POTENTIAL ENERGY =     894.4481376926
  NUCLEUS-ELECTRON POTENTIAL ENERGY =   -4520.9151011147
   NUCLEUS-NUCLEUS POTENTIAL ENERGY =     268.2284123203
                                      ------------------
             TOTAL POTENTIAL ENERGY =   -3358.2385511019
               TOTAL KINETIC ENERGY =    1678.8991424132
                 VIRIAL RATIO (V/T) =       2.0002622351

          ---------------------------------------
          MULLIKEN AND LOWDIN POPULATION ANALYSES
          ---------------------------------------

     ATOMIC MULLIKEN POPULATION IN EACH MOLECULAR ORBITAL

                      1          2          3          4          5

                  2.000000   2.000000   2.000000   2.000000   2.000000

    1             2.000000   1.999978   1.999996   1.999996   1.999999
    2             0.000000   0.000007   0.000001   0.000002   0.000000
    3             0.000000   0.000007   0.000001   0.000002   0.000000
    4             0.000000   0.000007   0.000003   0.000000   0.000000

                      6          7          8          9         10

                  2.000000   2.000000   2.000000   2.000000   2.000000

    1            -0.000188  -0.000265  -0.000265   1.996491   1.985902
    2             0.666729   0.333378   1.000133   0.001170   0.002577
    3             0.666729   0.333378   1.000133   0.001170   0.002577
    4             0.666729   1.333510  -0.000000   0.001170   0.008945

                     11         12         13         14         15

                  2.000000   2.000000   2.000000   2.000000   2.000000

    1             1.985902   1.998815   0.065699   0.068478   0.068478
    2             0.006822   0.000395   0.644767   0.321924   0.965757
    3             0.006822   0.000395   0.644767   0.321924   0.965757
    4             0.000454   0.000395   0.644767   1.287674   0.000008

                     16         17         18         19         20

                  2.000000   2.000000   2.000000   2.000000   2.000000

    1             0.267502   0.267502   0.105992   0.427966   0.479057
    2             0.861958   0.293041   0.631336   0.524011   0.277696
    3             0.861958   0.293041   0.631336   0.524011   0.277696
    4             0.008582   1.146417   0.631336   0.524011   0.965552

                     21         22         23         24         25

                  2.000000   2.000000   2.000000   2.000000   1.000000

    1             0.205855   0.205855   0.005786   0.479057   0.924040
    2             0.897074   0.299023   0.664738   0.736266   0.037975
    3             0.897074   0.299023   0.664738   0.736266   0.037975
    4            -0.000003   1.196100   0.664738   0.048410   0.000009

                     26         27         28         29

                  1.000000   1.000000   1.000000   1.000000

    1             0.928172   0.924040   0.751227   0.751227
    2             0.023943   0.012664   0.061396   0.104453
    3             0.023943   0.012664   0.061396   0.104453
    4             0.023943   0.050631   0.125981   0.039868

          MULLIKEN SPHERICAL HARMONIC POPULATIONS
       ATOM           S       P       D      F      G      H      I    TOTAL
    1 CO            3.16    6.25    5.16   0.01   0.00   0.00   0.00   14.59
    2 F             1.99    2.81    0.01   0.00   0.00   0.00   0.00    4.80
    3 F             1.99    2.81    0.01   0.00   0.00   0.00   0.00    4.80
    4 F             1.99    2.81    0.01   0.00   0.00   0.00   0.00    4.80

          MULLIKEN SPHERICAL HARMONIC POPULATIONS
       ATOM           S       P       D      F      G      H      I    TOTAL
    1 CO            3.13    6.21    0.96   0.01   0.00   0.00   0.00   10.31
    2 F             1.99    2.57    0.01   0.00   0.00   0.00   0.00    4.56
    3 F             1.99    2.57    0.01   0.00   0.00   0.00   0.00    4.56
    4 F             1.99    2.57    0.01   0.00   0.00   0.00   0.00    4.56

     ATOMIC SPIN POPULATION (ALPHA MINUS BETA)
       ATOM         MULL.POP.                    LOW.POP.
    1 CO            4.278706                     4.314235
    2 F             0.240431                     0.228711
    3 F             0.240431                     0.228711
    4 F             0.240431                     0.228344

               ----- POPULATIONS IN EACH AO -----
                             MULLIKEN      LOWDIN
              1  CO 1  S      2.00000     1.96027
              2  CO 1  S      1.99996     1.50280
              3  CO 1  S      1.98617     0.72391
              4  CO 1  S     -0.05431     0.10822
              5  CO 1  S      0.29897     0.14964
              6  CO 1  S      0.03615     0.08052
              7  CO 1  S      0.02736     0.02994
              8  CO 1  X      2.00000     1.95331
              9  CO 1  Y      2.00000     1.95331
             10  CO 1  Z      1.99999     1.95339
             11  CO 1  X      1.99200     0.84967
             12  CO 1  Y      1.99200     0.84925
             13  CO 1  Z      1.99664     0.86250
             14  CO 1  X     -0.66932     0.12428
             15  CO 1  Y     -0.66932     0.12446
             16  CO 1  Z     -0.23911     0.06699
             17  CO 1  X      0.85917     0.14485
             18  CO 1  Y      0.85917     0.14508
             19  CO 1  Z      0.33713     0.07048
             20  CO 1  X     -0.01111     0.04551
             21  CO 1  Y     -0.01111     0.04559
             22  CO 1  Z      0.00332     0.01156
             23  CO 1  X      0.00782     0.03252
             24  CO 1  Y      0.00782     0.03268
             25  CO 1  Z      0.00457     0.02055
             26  CO 1 XX      1.06375     0.75119
             27  CO 1 YY      1.25902     0.74899
             28  CO 1 ZZ      1.25902     0.71205
             29  CO 1 XY      1.04429     0.80195
             30  CO 1 XZ      1.04429     0.68704
             31  CO 1 YZ      0.00000     0.68702
             32  CO 1 XX      0.04811     0.21326
             33  CO 1 YY      0.09144     0.21321
             34  CO 1 ZZ      0.09144     0.12831
             35  CO 1 XY      0.06196     0.09025
             36  CO 1 XZ      0.06196     0.05145
             37  CO 1 YZ      0.00000     0.05148
             38  CO 1 XX      0.00537     0.08182
             39  CO 1 YY     -0.00138     0.08156
             40  CO 1 ZZ     -0.00138     0.06818
             41  CO 1 XY      0.00285     0.00643
             42  CO 1 XZ      0.00285     0.00155
             43  CO 1 YZ      0.00000     0.00155
             44  CO 1 XX     -0.00087     0.09477
             45  CO 1 YY      0.02153     0.09495
             46  CO 1 ZZ      0.02153     0.00973
             47  CO 1 XY      0.01883     0.13672
             48  CO 1 XZ      0.01883     0.08104
             49  CO 1 YZ      0.00000     0.08108
             50  CO 1 XXX     0.00004     0.45373
             51  CO 1 YYY     0.00000     0.45357
             52  CO 1 ZZZ     0.00002     0.45646
             53  CO 1 XXY     0.00001     0.19524
             54  CO 1 XXZ     0.00002     0.19388
             55  CO 1 YYX     0.00000     0.19524
             56  CO 1 YYZ     0.00001     0.19388
             57  CO 1 ZZX     0.00000     0.19686
             58  CO 1 ZZY     0.00000     0.19680
             59  CO 1 XYZ     0.00000     0.00001
             60  CO 1 XXX     0.00741     0.18922
             61  CO 1 YYY     0.00194     0.18840
             62  CO 1 ZZZ     0.00265     0.17982
             63  CO 1 XXY     0.00222     0.08350
             64  CO 1 XXZ     0.00265     0.07594
             65  CO 1 YYX     0.00194     0.08462
             66  CO 1 YYZ     0.00577     0.07594
             67  CO 1 ZZX     0.00000     0.07316
             68  CO 1 ZZY     0.00000     0.07322
             69  CO 1 XYZ     0.00000     0.00283
             70  CO 1XXXX     0.00004     0.27863
             71  CO 1YYYY     0.00002     0.27882
             72  CO 1ZZZZ     0.00002     0.26593
             73  CO 1XXXY     0.00001     0.16742
             74  CO 1XXXZ     0.00001     0.14158
             75  CO 1YYYX     0.00001     0.16751
             76  CO 1YYYZ     0.00002     0.14157
             77  CO 1ZZZX     0.00000     0.14347
             78  CO 1ZZZY     0.00004     0.14347
             79  CO 1XXYY     0.00000     0.13092
             80  CO 1XXZZ     0.00000     0.13941
             81  CO 1YYZZ     0.00000     0.13946
             82  CO 1XXYZ     0.00000     0.06457
             83  CO 1YYXZ     0.00000     0.06459
             84  CO 1ZZXY     0.00000     0.07730
             85  F  2  S      1.94988     1.58088
             86  F  2  S      1.08001     0.60090
             87  F  2  S      0.26597     0.41093
             88  F  2  S      0.67866     0.29748
             89  F  2  X      0.51537     0.44093
             90  F  2  Y      0.47242     0.40353
             91  F  2  Z      0.52403     0.44810
             92  F  2  X      0.83656     0.48660
             93  F  2  Y      0.79076     0.45740
             94  F  2  Z      0.84198     0.49032
             95  F  2  X      0.47317     0.41308
             96  F  2  Y      0.41889     0.38392
             97  F  2  Z      0.50874     0.42188
             98  F  2 XX      0.00006     0.15408
             99  F  2 YY      0.00010     0.15494
            100  F  2 ZZ      0.00016     0.15385
            101  F  2 XY      0.00002     0.00027
            102  F  2 XZ      0.00005     0.00005
            103  F  2 YZ      0.00000     0.00015
            104  F  2 XX      0.00131     0.14728
            105  F  2 YY      0.00337     0.15385
            106  F  2 ZZ      0.00383     0.14404
            107  F  2 XY      0.00090     0.00770
            108  F  2 XZ      0.00268     0.00108
            109  F  2 YZ      0.00000     0.00316
            110  F  2 XXX     0.00011     0.24105
            111  F  2 YYY     0.00001     0.23084
            112  F  2 ZZZ     0.00002     0.24055
            113  F  2 XXY     0.00003     0.10323
            114  F  2 XXZ     0.00004     0.11150
            115  F  2 YYX     0.00004     0.11322
            116  F  2 YYZ     0.00008     0.11447
            117  F  2 ZZX     0.00000     0.10924
            118  F  2 ZZY     0.00000     0.10232
            119  F  2 XYZ     0.00000     0.00009
            120  F  3  S      1.94988     1.58088
            121  F  3  S      1.08001     0.60090
            122  F  3  S      0.26597     0.41093
            123  F  3  S      0.67866     0.29748
            124  F  3  X      0.51537     0.44093
            125  F  3  Y      0.47242     0.40353
            126  F  3  Z      0.52403     0.44810
            127  F  3  X      0.83656     0.48660
            128  F  3  Y      0.79076     0.45740
            129  F  3  Z      0.84198     0.49032
            130  F  3  X      0.47317     0.41308
            131  F  3  Y      0.41889     0.38392
            132  F  3  Z      0.50874     0.42188
            133  F  3 XX      0.00006     0.15408
            134  F  3 YY      0.00010     0.15494
            135  F  3 ZZ      0.00016     0.15385
            136  F  3 XY      0.00002     0.00027
            137  F  3 XZ      0.00005     0.00005
            138  F  3 YZ      0.00000     0.00015
            139  F  3 XX      0.00131     0.14728
            140  F  3 YY      0.00337     0.15385
            141  F  3 ZZ      0.00383     0.14404
            142  F  3 XY      0.00090     0.00770
            143  F  3 XZ      0.00268     0.00108
            144  F  3 YZ      0.00000     0.00316
            145  F  3 XXX     0.00011     0.24105
            146  F  3 YYY     0.00001     0.23084
            147  F  3 ZZZ     0.00002     0.24055
            148  F  3 XXY     0.00003     0.10323
            149  F  3 XXZ     0.00004     0.11150
            150  F  3 YYX     0.00004     0.11322
            151  F  3 YYZ     0.00008     0.11447
            152  F  3 ZZX     0.00000     0.10924
            153  F  3 ZZY     0.00000     0.10232
            154  F  3 XYZ     0.00000     0.00009
            155  F  4  S      1.94988     1.58096
            156  F  4  S      1.08001     0.60196
            157  F  4  S      0.26597     0.41137
            158  F  4  S      0.67866     0.30099
            159  F  4  X      0.45095     0.38428
            160  F  4  Y      0.53684     0.45988
            161  F  4  Z      0.52403     0.44808
            162  F  4  X      0.76787     0.44694
            163  F  4  Y      0.85946     0.49871
            164  F  4  Z      0.84198     0.49038
            165  F  4  X      0.39176     0.37499
            166  F  4  Y      0.50031     0.41774
            167  F  4  Z      0.50874     0.42206
            168  F  4 XX      0.00006     0.15568
            169  F  4 YY      0.00019     0.15394
            170  F  4 ZZ      0.00007     0.15406
            171  F  4 XY      0.00007     0.00019
            172  F  4 XZ      0.00000     0.00020
            173  F  4 YZ      0.00000     0.00000
            174  F  4 XX      0.00131     0.16239
            175  F  4 YY      0.00406     0.14498
            176  F  4 ZZ      0.00314     0.14532
            177  F  4 XY      0.00357     0.00437
            178  F  4 XZ      0.00000     0.00424
            179  F  4 YZ      0.00000     0.00004
            180  F  4 XXX     0.00011     0.22659
            181  F  4 YYY     0.00005     0.24554
            182  F  4 ZZZ     0.00006     0.24053
            183  F  4 XXY     0.00003     0.11791
            184  F  4 XXZ     0.00000     0.11604
            185  F  4 YYX     0.00000     0.09849
            186  F  4 YYZ     0.00008     0.11003
            187  F  4 ZZX     0.00000     0.09884
            188  F  4 ZZY     0.00000     0.11265
            189  F  4 XYZ     0.00000     0.00001

          ----- MULLIKEN ATOMIC OVERLAP POPULATIONS -----
          (OFF-DIAGONAL ELEMENTS NEED TO BE MULTIPLIED BY 2)

             1           2           3           4

    1   24.1283759
    2    0.2546395   9.1164789
    3    0.2546395  -0.0009416   9.1164789
    4    0.2546395  -0.0009416  -0.0009416   9.1164789

          TOTAL MULLIKEN AND LOWDIN ATOMIC POPULATIONS
       ATOM         MULL.POP.    CHARGE          LOW.POP.     CHARGE
    1 CO           24.892294    2.107706        25.623846    1.376154
    2 F             9.369235   -0.369235         9.122899   -0.122899
    3 F             9.369235   -0.369235         9.122899   -0.122899
    4 F             9.369235   -0.369235         9.130355   -0.130355

          MULLIKEN SPHERICAL HARMONIC POPULATIONS
       ATOM           S       P       D      F      G      H      I    TOTAL
    1 CO            6.29   12.46    6.11   0.02   0.00   0.00   0.00   24.89
    2 F             3.97    5.38    0.01   0.00   0.00   0.00   0.00    9.37
    3 F             3.97    5.38    0.01   0.00   0.00   0.00   0.00    9.37
    4 F             3.97    5.38    0.01   0.00   0.00   0.00   0.00    9.37

          -------------------------------
          BOND ORDER AND VALENCE ANALYSIS     BOND ORDER THRESHOLD=0.050
          -------------------------------

                   BOND                       BOND                       BOND
  ATOM PAIR DIST  ORDER      ATOM PAIR DIST  ORDER      ATOM PAIR DIST  ORDER
    1   2  1.715  1.009        1   3  1.715  1.009        1   4  1.715  1.009

                       TOTAL       BONDED        FREE
      ATOM            VALENCE     VALENCE     VALENCE
    1 CO                6.725       3.027       3.698
    2 F                 1.068       1.042       0.027
    3 F                 1.068       1.042       0.027
    4 F                 1.068       1.042       0.027

          -----------------------------------------
          ATOMIC SPIN DENSITY AT THE NUCLEUS (A.U.)
          -----------------------------------------
                            SPIN DENS    ALPHA DENS     BETA DENS
    1  CO          27.0     0.6175499    6637.53706    6636.91951
    2  F            9.0     0.0151739     215.63665     215.62147
    3  F            9.0     0.0151739     215.63665     215.62147
    4  F            9.0     0.0151739     215.63665     215.62147

          ---------------------
          ELECTROSTATIC MOMENTS
          ---------------------

 POINT   1           X           Y           Z (BOHR)    CHARGE
                -0.000000    0.000000    0.000000        1.00 (A.U.)
         DX          DY          DZ         /D/  (DEBYE)
     0.000000    0.000000    0.000000    0.000000
 ...... END OF PROPERTY EVALUATION ......
 CPU     0: STEP CPU TIME=     0.21 TOTAL CPU TIME=       9458.8 (    157.6 MIN)
 TOTAL WALL CLOCK TIME=       9459.3 SECONDS, CPU UTILIZATION IS    99.99%
               580000  WORDS OF DYNAMIC MEMORY USED
 EXECUTION OF GAMESS TERMINATED NORMALLY Mon Mar 20 14:34:02 2023
 DDI: 263640 bytes (0.3 MB / 0 MWords) used by master data server.

 ----------------------------------------
 CPU timing information for all processes
 ========================================
 0: 9458.655 + 0.103 = 9458.759
 ----------------------------------------
Note: The following floating-point exceptions are signalling: IEEE_DENORMAL
 ddikick.x: exited gracefully.
unset echo
----- accounting info -----
Files used on the master node cpu001 were:
-rw-r--r-- 1 bjb2chen nooijen  491464 Mar 20 11:56 /home/bjb2chen/gmsscr//CoF3_cat1_cct_rohf_D3h_e_d5_mult6.F05
-rw-r--r-- 1 bjb2chen nooijen 5693280 Mar 20 14:34 /home/bjb2chen/gmsscr//CoF3_cat1_cct_rohf_D3h_e_d5_mult6.F10
ls: No match.
ls: No match.
ls: No match.
Mon 20 Mar 2023 02:34:05 PM EDT
0.142u 0.029s 2:37:42.52 0.0%	0+0k 960+1136io 0pf+0w
