----- GAMESS execution script 'rungms' -----
This job is running on host io002
under operating system Linux at Sat 16 Dec 2023 04:45:26 PM EST
Available scratch disk space (Kbyte units) at beginning of the job is
Filesystem             1K-blocks       Used Available Use% Mounted on
helmholtz.nlogn:/home 6391504896 5238951936 830413824  87% /home
GAMESS temporary binary files will be written to /home/bjb2chen/gmsscr/
GAMESS supplementary output files will be written to /home/bjb2chen/gamess/vibronics/converged_inputs
Copying input file CoF3_cat24_cct_rhf_D3h_e_F2sfilled.inp to your run's scratch directory...
cp CoF3_cat24_cct_rhf_D3h_e_F2sfilled.inp /home/bjb2chen/gmsscr//CoF3_cat24_cct_rhf_D3h_e_F2sfilled.F05
unset echo
 
Assuming a single but multicore node.
 
/home/bjb2chen/gamess/ddikick.x /home/bjb2chen/gamess/gamess.00.x CoF3_cat24_cct_rhf_D3h_e_F2sfilled -ddi 1 12 io002:cpus=12 -scr /home/bjb2chen/gmsscr/

 Distributed Data Interface kickoff program.
 Initiating 12 compute processes on 1 nodes to run the following command:
 /home/bjb2chen/gamess/gamess.00.x CoF3_cat24_cct_rhf_D3h_e_F2sfilled 

          ******************************************************
          *         GAMESS VERSION = 02 AUG 2018 (R2)         *
          *             FROM IOWA STATE UNIVERSITY             *
          * M.W.SCHMIDT, K.K.BALDRIDGE, J.A.BOATZ, S.T.ELBERT, *
          *   M.S.GORDON, J.H.JENSEN, S.KOSEKI, N.MATSUNAGA,   *
          *          K.A.NGUYEN, S.J.SU, T.L.WINDUS,           *
          *       TOGETHER WITH M.DUPUIS, J.A.MONTGOMERY       *
          *         J.COMPUT.CHEM.  14, 1347-1363(1993)        *
          **************** 64 BIT LINUX VERSION ****************

  SINCE 1993, STUDENTS AND POSTDOCS WORKING AT IOWA STATE UNIVERSITY
  AND ALSO IN THEIR VARIOUS JOBS AFTER LEAVING ISU HAVE MADE IMPORTANT
  CONTRIBUTIONS TO THE CODE:
     IVANA ADAMOVIC, CHRISTINE AIKENS, YURI ALEXEEV, POOJA ARORA,
     ANDREY ASADCHEV, ROB BELL, PRADIPTA BANDYOPADHYAY, JONATHAN BENTZ,
     BRETT BODE, KURT BRORSEN, CALEB CARLIN, GALINA CHABAN, WEI CHEN,
     CHEOL HO CHOI, PAUL DAY, ALBERT DEFUSCO, NUWAN DESILVA, TIM DUDLEY,
     DMITRI FEDOROV, ALEX FINDLATER, GRAHAM FLETCHER, MARK FREITAG,
     KURT GLAESEMANN, ANASTASIA GUININA,
     DAN KEMP, GRANT MERRILL, NORIYUKI MINEZAWA, JONATHAN MULLIN,
     TAKESHI NAGATA, SEAN NEDD, HEATHER NETZLOFF, BOSILJKA NJEGIC, RYAN OLSON,
     MIKE PAK, BUU PHAM,
     SPENCER PRUITT, LUKE ROSKOP, JIM SHOEMAKER, LYUDMILA SLIPCHENKO,
     TONY SMITH, SAROM SOK LEANG, JIE SONG, TETSUYA TAKETSUGU, SIMON WEBB,
     PENG XU, SOOHAENG YOO, FEDERICO ZAHARIEV

  ADDITIONAL CODE HAS BEEN PROVIDED BY COLLABORATORS IN OTHER GROUPS:
     IOWA STATE UNIVERSITY:
          JOE IVANIC, AARON WEST, LAIMUTIS BYTAUTAS, KLAUS RUEDENBERG
     UNIVERSITY OF TOKYO: KIMIHIKO HIRAO, TAKAHITO NAKAJIMA,
          TAKAO TSUNEDA, MUNEAKI KAMIYA, SUSUMU YANAGISAWA,
          KIYOSHI YAGI, MAHITO CHIBA, SEIKEN TOKURA, NAOAKI KAWAKAMI
     UNIVERSITY OF AARHUS: FRANK JENSEN
     UNIVERSITY OF IOWA: VISVALDAS KAIRYS, HUI LI
     NATIONAL INST. OF STANDARDS AND TECHNOLOGY: WALT STEVENS, DAVID GARMER
     UNIVERSITY OF PISA: BENEDETTA MENNUCCI, JACOPO TOMASI
     UNIVERSITY OF MEMPHIS: HENRY KURTZ, PRAKASHAN KORAMBATH
     UNIVERSITY OF ALBERTA: TOBY ZENG, MARIUSZ KLOBUKOWSKI
     UNIVERSITY OF NEW ENGLAND: MARK SPACKMAN
     MIE UNIVERSITY: HIROAKI UMEDA
     NAT. INST. OF ADVANCED INDUSTRIAL SCIENCE AND TECHNOLOGY: KAZUO KITAURA
     MICHIGAN STATE UNIVERSITY:
          KAROL KOWALSKI, MARTA WLOCH, JEFFREY GOUR, JESSE LUTZ,
          WEI LI, JUN SHEN, J. EMILIANO DEUSTUA, PIOTR PIECUCH
     UNIVERSITY OF MINNESOTA:
          YINAN SHU
     UNIVERSITY OF SILESIA: MONIKA MUSIAL, STANISLAW KUCHARSKI
     FACULTES UNIVERSITAIRES NOTRE-DAME DE LA PAIX:
          OLIVIER QUINET, BENOIT CHAMPAGNE
     UNIVERSITY OF CALIFORNIA - SANTA BARBARA: BERNARD KIRTMAN
     INSTITUTE FOR MOLECULAR SCIENCE:
          KAZUYA ISHIMURA, MICHIO KATOUDA, AND SHIGERU NAGASE
     UNIVERSITY OF NOTRE DAME: ANNA POMOGAEVA, DAN CHIPMAN
     KYUSHU UNIVERSITY:
          HARUYUKI NAKANO,
          FENG LONG GU, JACEK KORCHOWIEC, MARCIN MAKOWSKI, AND YURIKO AOKI,
          HIROTOSHI MORI AND EISAKU MIYOSHI
     PENNSYLVANIA STATE UNIVERSITY:
          TZVETELIN IORDANOV, CHET SWALINA, JONATHAN SKONE,
          SHARON HAMMES-SCHIFFER
     WASEDA UNIVERSITY:
          MASATO KOBAYASHI, TOMOKO AKAMA, TSUGUKI TOUMA,
          TAKESHI YOSHIKAWA, YASUHIRO IKABATA, JUNJI SEINO,
          YUYA NAKAJIMA, HIROMI NAKAI
     NANJING UNIVERSITY: SHUHUA LI
     UNIVERSITY OF NEBRASKA:
          PEIFENG SU, DEJUN SI, NANDUN THELLAMUREGE, YALI WANG, HUI LI
     UNIVERSITY OF ZURICH: ROBERTO PEVERATI, KIM BALDRIDGE
     N. COPERNICUS UNIVERSITY AND JACKSON STATE UNIVERSITY:
          MARIA BARYSZ
     UNIVERSITY OF COPENHAGEN: Jimmy Kromann, CASPER STEINMANN
     TOKYO INSTITUTE OF TECHNOLOGY: HIROYA NAKATA
     NAGOYA UNIVERSITY: YOSHIO NISHIMOTO, STEPHAN IRLE
     MOSCOW STATE UNIVERSITY: VLADIMIR MIRONOV


 PARALLEL VERSION RUNNING ON       12 PROCESSORS IN        1 NODES.

 EXECUTION OF GAMESS BEGUN Sat Dec 16 16:45:27 2023

            ECHO OF THE FIRST FEW INPUT CARDS -
 INPUT CARD> !Step 2: single point gmcpt calculation averaging 10 states                    
 INPUT CARD> !        for FeF4- at optimized geometry. The UHF orbitals at                  
 INPUT CARD> !        the MP2 optimized structure is taken as the initial                   
 INPUT CARD> !        guess of orbitals in the $VEC group.                                  
 INPUT CARD> $system kdiag=3 mwords=100 memddi=1000 parall=.t. $end                         
 INPUT CARD> $contrl runtyp=energy ispher=1 $end                                            
 INPUT CARD> $contrl icut=9 itol=20 inttyp=rysquad qmttol=1.0d-05 nosym=0 $end              
 INPUT CARD> $scf    npunch=2 conv=1.0d-06 dirscf=.t. diis=.t. soscf=.f. ethrsh=10.0 $end   
 INPUT CARD> $contrl scftyp=rhf  mult=1 maxit=200 icharg=24 $end                            
 INPUT CARD> $guess  guess=moread norb=158 purify=.t. norder=1                              
 INPUT CARD>         iorder(13)=18,19,20,13,14,15,16,17 $end                                
 INPUT CARD> $basis  gbasis=cct $end                                                        
 INPUT CARD> $mcscf  cistep=gmcci fullnr=.t. finci=mos                                      
 INPUT CARD>         acurcy=1.d-6 maxit=100 $end                                            
 INPUT CARD> $trans  dirtrf=.t. $end                                                        
 INPUT CARD> $mrmp   mrpt=gmcpt rdvecs=.f. $end                                             
 INPUT CARD> $gmcpt  nmofzc=27 nmodoc=0 nmoact=5 nelact=5 stsym(1)=A nsolut=100             
 INPUT CARD>         reftyp=ormas nspace=1 mstart(1)=28 mine(1)=5 maxe(1)=5                 
 INPUT CARD>         kstate(1)=1                                                            
 INPUT CARD>         wstate(1)=1                                                            
 INPUT CARD>         iwgt=0 thrwgt=-1.0 krot=.f. kszdoe=.f. knospn=.f.                      
 INPUT CARD>         thrde=-1.0 edshft=0.02 $end                                            
 INPUT CARD> $statpt hssend=.t. $end                                                        
 INPUT CARD> $data                                                                          
 INPUT CARD> FeH4- 10 states calculation at opt geometry.                                   
 INPUT CARD> dnh 3                                                                          
 INPUT CARD>                                                                                
 INPUT CARD> Co     27.0   0.0  0.0  0.0                                                    
 INPUT CARD> F       9.0   1.715  0.0  0.0                                                  
 INPUT CARD> $end                                                                           
 INPUT CARD>--- CLOSED SHELL ORBITALS --- GENERATED AT Mon Mar 13 12:02:11 2023             
 INPUT CARD> FeH4- 10 states calculation at opt geometry.                                   
 INPUT CARD>E(RHF)=    -1495.5854318949, E(NUC)=  268.2284123203,    9 ITERS                
 INPUT CARD> $VEC                                                                           
 INPUT CARD> 1  1 9.82389196E-01-1.86863265E-01-3.73257307E-04 3.63447128E-04-1.74800243E-04
 INPUT CARD> 1  2 2.48044076E-04-2.94600893E-05 0.00000000E+00 0.00000000E+00 0.00000000E+00
 INPUT CARD> 1  3 0.00000000E+00 0.00000000E+00 0.00000000E+00 0.00000000E+00 0.00000000E+00
 INPUT CARD> 1  4 0.00000000E+00 0.00000000E+00 0.00000000E+00 0.00000000E+00 0.00000000E+00
 INPUT CARD> 1  5 0.00000000E+00 0.00000000E+00 0.00000000E+00 0.00000000E+00 0.00000000E+00
 INPUT CARD> 1  6-4.45507173E-06-4.45507173E-06 8.91014346E-06 0.00000000E+00 0.00000000E+00
 INPUT CARD> 1  7 0.00000000E+00-6.92531623E-06-6.92531623E-06 1.38506325E-05 0.00000000E+00
 INPUT CARD> 1  8 0.00000000E+00 0.00000000E+00-3.30040066E-06-3.30040066E-06 6.60080132E-06
 INPUT CARD> 1  9 0.00000000E+00 0.00000000E+00 0.00000000E+00 7.99997643E-07 7.99997643E-07
 INPUT CARD> 1 10-1.59999529E-06 0.00000000E+00 0.00000000E+00 0.00000000E+00 5.38075789E-07
 INPUT CARD> 1 11 0.00000000E+00 0.00000000E+00 0.00000000E+00 0.00000000E+00-7.21904425E-07
 INPUT CARD> 1 12 0.00000000E+00 0.00000000E+00 0.00000000E+00 0.00000000E+00-3.96140371E-06
 INPUT CARD> 1 13 0.00000000E+00 0.00000000E+00 0.00000000E+00 0.00000000E+00 5.31478079E-06
 INPUT CARD> 1 14 0.00000000E+00 0.00000000E+00 0.00000000E+00 0.00000000E+00-8.32464567E-08
 INPUT CARD> 1 15-8.32464567E-08-2.21990551E-07 0.00000000E+00 0.00000000E+00 0.00000000E+00
 INPUT CARD> 1 16 0.00000000E+00 0.00000000E+00 0.00000000E+00-4.87441339E-08 1.94976536E-07
  100000000 WORDS OF MEMORY AVAILABLE

     BASIS OPTIONS
     -------------
     GBASIS=CCT          IGAUSS=       0      POLAR=NONE    
     NDFUNC=       0     NFFUNC=       0     DIFFSP=       F
     NPFUNC=       0      DIFFS=       F     BASNAM=        


     RUN TITLE
     ---------
  FeH4- 10 states calculation at opt geometry.                                   

 THE POINT GROUP OF THE MOLECULE IS DNH     
 THE ORDER OF THE PRINCIPAL AXIS IS     3

 ATOM      ATOMIC                      COORDINATES (BOHR)
           CHARGE         X                   Y                   Z
 CO         27.0     0.0000000000        0.0000000000        0.0000000000
 F           9.0    -1.6204400345        2.8066844703        0.0000000000
 F           9.0    -1.6204400345       -2.8066844703        0.0000000000
 F           9.0     3.2408800689        0.0000000000        0.0000000000

          INTERNUCLEAR DISTANCES (ANGS.)
          ------------------------------

                1 CO         2 F          3 F          4 F     

   1 CO      0.0000000    1.7150000 *  1.7150000 *  1.7150000 *
   2 F       1.7150000 *  0.0000000    2.9704671 *  2.9704671 *
   3 F       1.7150000 *  2.9704671 *  0.0000000    2.9704671 *
   4 F       1.7150000 *  2.9704671 *  2.9704671 *  0.0000000  

  * ... LESS THAN  3.000


     ATOMIC BASIS SET
     ----------------
 THE CONTRACTED PRIMITIVE FUNCTIONS HAVE BEEN UNNORMALIZED
 THE CONTRACTED BASIS FUNCTIONS ARE NOW NORMALIZED TO UNITY

  SHELL TYPE  PRIMITIVE        EXPONENT          CONTRACTION COEFFICIENT(S)

 CO        

      1   S       1       4675675.0000000    0.000007979026
      1   S       2        700161.5000000    0.000062040710
      1   S       3        159337.3000000    0.000326173499
      1   S       4         45130.4600000    0.001375359996
      1   S       5         14722.3800000    0.004979996986
      1   S       6          5314.2220000    0.015964339954
      1   S       7          2072.0180000    0.045520859869
      1   S       8           858.6188000    0.112738499676
      1   S       9           373.5497000    0.226826199348
      1   S      10           168.9229000    0.320307399079
      1   S      11            78.2963900    0.237402099317
      1   S      12            35.5212300    0.074776859785
      1   S      13            17.0414400    0.095818719724
      1   S      14             8.1730000    0.096499109722
      1   S      15             3.6103180    0.016233619953
      1   S      16             1.6970470   -0.000453549699
      1   S      17             0.7435320    0.000051135190
      1   S      18             0.1583440   -0.000041745080
      1   S      19             0.0750360    0.000040275770

      2   S      20       4675675.0000000   -0.000004200222
      2   S      21        700161.5000000   -0.000032658172
      2   S      22        159337.3000000   -0.000171763672
      2   S      23         45130.4600000   -0.000724782227
      2   S      24         14722.3800000   -0.002631450845
      2   S      25          5314.2220000   -0.008489236012
      2   S      26          2072.0180000   -0.024606085688
      2   S      27           858.6188000   -0.063220321992
      2   S      28           373.5497000   -0.138195114153
      2   S      29           168.9229000   -0.234067007726
      2   S      30            78.2963900   -0.241499176219
      2   S      31            35.5212300    0.030352991325
      2   S      32            17.0414400    0.510131937411
      2   S      33             8.1730000    0.497491790996
      2   S      34             3.6103180    0.089707079707
      2   S      35             1.6970470   -0.005941008814
      2   S      36             0.7435320    0.000217535278
      2   S      37             0.1583440   -0.000548013177
      2   S      38             0.0750360    0.000452578481

      3   S      39       4675675.0000000    0.000000959940
      3   S      40        700161.5000000    0.000007467071
      3   S      41        159337.3000000    0.000039258817
      3   S      42         45130.4600000    0.000165886575
      3   S      43         14722.3800000    0.000602854968
      3   S      44          5314.2220000    0.001956584889
      3   S      45          2072.0180000    0.005730332194
      3   S      46           858.6188000    0.015140424985
      3   S      47           373.5497000    0.034864104218
      3   S      48           168.9229000    0.065749476822
      3   S      49            78.2963900    0.078369819966
      3   S      50            35.5212300   -0.018783501936
      3   S      51            17.0414400   -0.306480566917
      3   S      52             8.1730000   -0.456962371866
      3   S      53             3.6103180    0.137913318059
      3   S      54             1.6970470    0.719870876652
      3   S      55             0.7435320    0.399537224756
      3   S      56             0.1583440    0.020813881416
      3   S      57             0.0750360   -0.007826134413

      4   S      58       4675675.0000000   -0.000000276519
      4   S      59        700161.5000000   -0.000002150146
      4   S      60        159337.3000000   -0.000011310778
      4   S      61         45130.4600000   -0.000047759489
      4   S      62         14722.3800000   -0.000173727727
      4   S      63          5314.2220000   -0.000563261203
      4   S      64          2072.0180000   -0.001652238041
      4   S      65           858.6188000   -0.004360475925
      4   S      66           373.5497000   -0.010073445487
      4   S      67           168.9229000   -0.018994588573
      4   S      68            78.2963900   -0.022877956727
      4   S      69            35.5212300    0.005656001429
      4   S      70            17.0414400    0.092647782216
      4   S      71             8.1730000    0.146625953517
      4   S      72             3.6103180   -0.056780347044
      4   S      73             1.6970470   -0.290039459333
      4   S      74             0.7435320   -0.324564890047
      4   S      75             0.1583440    0.361286288406
      4   S      76             0.0750360    0.779979303455

      5   S      77       4675675.0000000   -0.000000375943
      5   S      78        700161.5000000   -0.000002986473
      5   S      79        159337.3000000   -0.000015228524
      5   S      80         45130.4600000   -0.000066989482
      5   S      81         14722.3800000   -0.000231359842
      5   S      82          5314.2220000   -0.000799286946
      5   S      83          2072.0180000   -0.002169824201
      5   S      84           858.6188000   -0.006294352843
      5   S      85           373.5497000   -0.012899098481
      5   S      86           168.9229000   -0.028676464682
      5   S      87            78.2963900   -0.025293507471
      5   S      88            35.5212300   -0.008271815023
      5   S      89            17.0414400    0.168098386692
      5   S      90             8.1730000    0.147162726029
      5   S      91             3.6103180    0.034591657136
      5   S      92             1.6970470   -0.859252154691
      5   S      93             0.7435320    0.208603367783
      5   S      94             0.1583440    1.665947312096
      5   S      95             0.0750360   -0.694851839860

      6   S      96       4675675.0000000   -0.000000423871
      6   S      97        700161.5000000   -0.000003380573
      6   S      98        159337.3000000   -0.000017138538
      6   S      99         45130.4600000   -0.000075965982
      6   S     100         14722.3800000   -0.000259853528
      6   S     101          5314.2220000   -0.000908385000
      6   S     102          2072.0180000   -0.002431690094
      6   S     103           858.6188000   -0.007181092213
      6   S     104           373.5497000   -0.014417795156
      6   S     105           168.9229000   -0.033095716076
      6   S     106            78.2963900   -0.027704630055
      6   S     107            35.5212300   -0.012813142310
      6   S     108            17.0414400    0.205463067526
      6   S     109             8.1730000    0.206810533299
      6   S     110             3.6103180   -0.121025620716
      6   S     111             1.6970470   -1.277995783429
      6   S     112             0.7435320    1.491198803533
      6   S     113             0.1583440   -0.093935698071
      6   S     114             0.0750360   -1.078343041724

      7   S     115             0.0330910    1.000000000000

      8   P     116         19267.7800000    0.000041000039
      8   P     117          4560.9860000    0.000369000347
      8   P     118          1481.4360000    0.002128002002
      8   P     119           566.8671000    0.009372008817
      8   P     120           240.4910000    0.033155031190
      8   P     121           109.6105000    0.094752089136
      8   P     122            52.5949100    0.209093196700
      8   P     123            26.0836100    0.333722313943
      8   P     124            13.2614300    0.332208312518
      8   P     125             6.7997780    0.154613145449
      8   P     126             3.3934140    0.020902019663
      8   P     127             1.6487660   -0.002024001904
      8   P     128             0.7762820   -0.001697001596
      8   P     129             0.2980030   -0.000280000263
      8   P     130             0.1136180    0.000026000024

      9   P     131         19267.7800000   -0.000015001601
      9   P     132          4560.9860000   -0.000131013983
      9   P     133          1481.4360000   -0.000758080910
      9   P     134           566.8671000   -0.003363358971
      9   P     135           240.4910000   -0.012055286661
      9   P     136           109.6105000   -0.035427781207
      9   P     137            52.5949100   -0.081295676687
      9   P     138            26.0836100   -0.136922613750
      9   P     139            13.2614300   -0.139033839081
      9   P     140             6.7997780    0.035471785903
      9   P     141             3.3934140    0.338534131745
      9   P     142             1.6487660    0.454481506808
      9   P     143             0.7762820    0.279822865492
      9   P     144             0.2980030    0.044780779452
      9   P     145             0.1136180   -0.003151336342

     10   P     146         19267.7800000   -0.000004169493
     10   P     147          4560.9860000   -0.000040305102
     10   P     148          1481.4360000   -0.000232101793
     10   P     149           566.8671000   -0.001031254673
     10   P     150           240.4910000   -0.003699730377
     10   P     151           109.6105000   -0.010897665622
     10   P     152            52.5949100   -0.025087841109
     10   P     153            26.0836100   -0.042501034908
     10   P     154            13.2614300   -0.043518391270
     10   P     155             6.7997780    0.015720379524
     10   P     156             3.3934140    0.125070900307
     10   P     157             1.6487660    0.181696788641
     10   P     158             0.7762820    0.099800991324
     10   P     159             0.2980030   -0.308067181022
     10   P     160             0.1136180   -0.793628301452

     11   P     161         19267.7800000    0.000005215088
     11   P     162          4560.9860000    0.000046935794
     11   P     163          1481.4360000    0.000265969499
     11   P     164           566.8671000    0.001193212184
     11   P     165           240.4910000    0.004235694648
     11   P     166           109.6105000    0.012615298392
     11   P     167            52.5949100    0.028657952758
     11   P     168            26.0836100    0.049602790047
     11   P     169            13.2614300    0.049336820548
     11   P     170             6.7997780   -0.015038228376
     11   P     171             3.3934140   -0.156517313539
     11   P     172             1.6487660   -0.207656468574
     11   P     173             0.7762820   -0.083215076609
     11   P     174             0.2980030    0.478781603740
     11   P     175             0.1136180    0.644058179445

     12   P     176         19267.7800000    0.000011612885
     12   P     177          4560.9860000    0.000097125946
     12   P     178          1481.4360000    0.000594368558
     12   P     179           566.8671000    0.002485157345
     12   P     180           240.4910000    0.009476113989
     12   P     181           109.6105000    0.026192333786
     12   P     182            52.5949100    0.065011040490
     12   P     183            26.0836100    0.100057671070
     12   P     184            13.2614300    0.133751928431
     12   P     185             6.7997780   -0.067306168811
     12   P     186             3.3934140   -0.441887157739
     12   P     187             1.6487660   -0.599504620131
     12   P     188             0.7762820    0.924180820248
     12   P     189             0.2980030    0.758282315285
     12   P     190             0.1136180   -0.923458709958

     13   P     191             0.0416240    1.000000000000

     14   D     192           126.2640000    0.003567388562
     14   D     193            37.5226000    0.026307203858
     14   D     194            13.8021000    0.101693950072
     14   D     195             5.6092700    0.244479947711
     14   D     196             2.3336900    0.362677389371
     14   D     197             0.9364150    0.365458123019
     14   D     198             0.3482370    0.240497888342

     15   D     199           126.2640000   -0.005098657495
     15   D     200            37.5226000   -0.037676408582
     15   D     201            13.8021000   -0.149963464367
     15   D     202             5.6092700   -0.365459784218
     15   D     203             2.3336900   -0.398725797652
     15   D     204             0.9364150    0.114958616917
     15   D     205             0.3482370    0.703084433848

     16   D     206           126.2640000    0.006664898326
     16   D     207            37.5226000    0.049728426940
     16   D     208            13.8021000    0.205890528200
     16   D     209             5.6092700    0.498781739241
     16   D     210             2.3336900    0.105171364510
     16   D     211             0.9364150   -0.936994539586
     16   D     212             0.3482370    0.004087885536

     17   D     213             0.1123530    1.000000000000

     18   F     214             3.8137000    1.000000000000

     19   F     215             0.9309000    1.000000000000

     20   G     216             2.4709000    1.000000000000

 F         

     41   S     217         19500.0000000    0.000519371600
     41   S     218          2923.0000000    0.004018727387
     41   S     219           664.5000000    0.020692911859
     41   S     220           187.5000000    0.080937968612
     41   S     221            60.6200000    0.236062075041
     41   S     222            21.4200000    0.443434759512
     41   S     223             7.9500000    0.358503673552
     41   S     224             0.8815000   -0.008084577247

     42   S     225         19500.0000000   -0.000199591153
     42   S     226          2923.0000000   -0.001555787449
     42   S     227           664.5000000   -0.008046764688
     42   S     228           187.5000000   -0.032558946542
     42   S     229            60.6200000   -0.101765899400
     42   S     230            21.4200000   -0.238844079709
     42   S     231             7.9500000   -0.301573702586
     42   S     232             0.8815000    1.032147264620

     43   S     233             2.2570000    1.000000000000

     44   S     234             0.3041000    1.000000000000

     45   P     235            43.8800000    0.041904620686
     45   P     236             9.9260000    0.262697841725
     45   P     237             2.9300000    0.797759373475

     46   P     238             0.9132000    1.000000000000

     47   P     239             0.2672000    1.000000000000

     48   D     240             3.1070000    1.000000000000

     49   D     241             0.8550000    1.000000000000

     50   F     242             1.9170000    1.000000000000

 TOTAL NUMBER OF BASIS SET SHELLS             =   50
 NUMBER OF CARTESIAN GAUSSIAN BASIS FUNCTIONS =  189
 NOTE: THIS RUN WILL RESTRICT THE MO VARIATION SPACE TO SPHERICAL HARMONICS.
 THE NUMBER OF ORBITALS KEPT IN THE VARIATIONAL SPACE WILL BE PRINTED LATER.
 NUMBER OF ELECTRONS                          =   30
 CHARGE OF MOLECULE                           =   24
 SPIN MULTIPLICITY                            =    1
 NUMBER OF OCCUPIED ORBITALS (ALPHA)          =   15
 NUMBER OF OCCUPIED ORBITALS (BETA )          =   15
 TOTAL NUMBER OF ATOMS                        =    4
 THE NUCLEAR REPULSION ENERGY IS      268.2284123203

     $CONTRL OPTIONS
     ---------------
 SCFTYP=RHF          RUNTYP=ENERGY       EXETYP=RUN     
 MPLEVL=       0     CITYP =NONE         CCTYP =NONE         VBTYP =NONE    
 DFTTYP=NONE         TDDFT =NONE    
 MULT  =       1     ICHARG=      24     NZVAR =       0     COORD =UNIQUE  
 PP    =NONE         RELWFN=NONE         LOCAL =NONE         NUMGRD=       F
 ISPHER=       1     NOSYM =       0     MAXIT =     200     UNITS =ANGS    
 PLTORB=       F     MOLPLT=       F     AIMPAC=       F     FRIEND=        
 NPRINT=       7     IREST =       0     GEOM  =INPUT   
 NORMF =       0     NORMP =       0     ITOL  =      20     ICUT  =       9
 INTTYP=RYSQUAD      GRDTYP=BEST         QMTTOL= 1.0E-05

     $SYSTEM OPTIONS
     ---------------
  REPLICATED MEMORY=   100000000 WORDS (ON EVERY NODE).
 DISTRIBUTED MEMDDI=        1000 MILLION WORDS IN AGGREGATE,
 MEMDDI DISTRIBUTED OVER  12 PROCESSORS IS    83333333 WORDS/PROCESSOR.
 TOTAL MEMORY REQUESTED ON EACH PROCESSOR=   183333333 WORDS.
 TIMLIM=      525600.00 MINUTES, OR     365.0 DAYS.
 PARALL= T  BALTYP=  DLB     KDIAG=    3  COREFL= F
 MXSEQ2=     300 MXSEQ3=     150  mem10=         0

          ----------------
          PROPERTIES INPUT
          ----------------

     MOMENTS            FIELD           POTENTIAL          DENSITY
 IEMOM =       1   IEFLD =       0   IEPOT =       0   IEDEN =       0
 WHERE =COMASS     WHERE =NUCLEI     WHERE =NUCLEI     WHERE =NUCLEI  
 OUTPUT=BOTH       OUTPUT=BOTH       OUTPUT=BOTH       OUTPUT=BOTH    
 IEMINT=       0   IEFINT=       0                     IEDINT=       0
                                                       MORB  =       0
          EXTRAPOLATION IN EFFECT
          DIIS IN EFFECT
 ORBITAL PRINTING OPTION: NPREO=     1   189     2     1

     -------------------------------
     INTEGRAL TRANSFORMATION OPTIONS
     -------------------------------
     NWORD  =            0
     CUTOFF = 1.0E-09     MPTRAN =       0
     DIRTRF =       T     AOINTS =DUP     

          ----------------------
          INTEGRAL INPUT OPTIONS
          ----------------------
 NOPK  =       1 NORDER=       0 SCHWRZ=       T

     ------------------------------------------
     THE POINT GROUP IS DNH, NAXIS= 3, ORDER=12
     ------------------------------------------

 -- VARIATIONAL SPACE WILL BE RESTRICTED TO PURE SPHERICAL HARMONICS ONLY --
 AFTER EXCLUDING CONTAMINANT COMBINATIONS FROM THE CARTESIAN GAUSSIAN BASIS
 SET, THE NUMBER OF SPHERICAL HARMONICS KEPT IN THE VARIATION SPACE IS  158

     DIMENSIONS OF THE SYMMETRY SUBSPACES ARE
 A1' =   27     A1" =    4     A2' =    9     A2" =   16     E'' =   17
 E'  =   34

 ..... DONE SETTING UP THE RUN .....
 CPU     0: STEP CPU TIME=     0.38 TOTAL CPU TIME=          0.4 (      0.0 MIN)
 TOTAL WALL CLOCK TIME=          0.4 SECONDS, CPU UTILIZATION IS    90.48%

          ********************
          1 ELECTRON INTEGRALS
          ********************
 ...... END OF ONE-ELECTRON INTEGRALS ......
 CPU     0: STEP CPU TIME=     0.01 TOTAL CPU TIME=          0.4 (      0.0 MIN)
 TOTAL WALL CLOCK TIME=          0.4 SECONDS, CPU UTILIZATION IS    90.70%

          -------------
          GUESS OPTIONS
          -------------
          GUESS =MOREAD            NORB  =     158          NORDER=       1
          MIX   =       F          PRTMO =       F          PUNMO =       F
          TOLZ  = 1.0E-08          TOLE  = 1.0E-05
          SYMDEN=       F          PURIFY=       T

 INITIAL GUESS ORBITALS GENERATED BY MOREAD   ROUTINE.

 STATISTICS FOR GENERATION OF SYMMETRY ORBITAL -Q- MATRIX
 NUMBER OF CARTESIAN ATOMIC ORBITALS=        189
 NUMBER OF SPHERICAL CONTAMINANTS DROPPED=    31
 NUMBER OF LINEARLY DEPENDENT MOS DROPPED=     0
 TOTAL NUMBER OF MOS IN VARIATION SPACE=     158
 ORBITAL PURIFICATION WILL OCCUR

 SYMMETRIES FOR INITIAL GUESS ORBITALS FOLLOW.   BOTH SET(S).
    15 ORBITALS ARE OCCUPIED (   12 CORE ORBITALS).
     1=A1'      2=A1'      3=E'       4=E'       5=A2"      6=E'       7=E'  
     8=A1'      9=A1'     10=E'      11=E'      12=A2"     13=A1'     14=E'  
    15=E'      16=E'      17=E'      18=E''     19=E''     20=A1'     21=E'  
    22=E'      23=A2'     24=A2"     25=E''     26=E''     27=A1'     28=E'  
    29=E'      30=A1'     31=E'      32=E'      33=A2"     34=E'      35=E'  
    36=E''     37=E''     38=A1'     39=A2'     40=A1'     41=E''     42=E'' 
    43=A2"     44=E'      45=E'      46=A1'     47=E'      48=E'      49=A2" 
    50=E'      51=E'      52=E''     53=E''     54=A2'     55=A1'     56=A1" 
    57=E'      58=E'      59=E''     60=E''     61=A1'     62=E'      63=E'  
    64=A2"     65=E'      66=E'      67=E''     68=E''     69=A2'     70=A2" 
    71=A1'     72=E'      73=E'      74=E'      75=E'      76=A1'     77=E'' 
    78=E''     79=A1'     80=E'      81=E'      82=E'      83=E'      84=A2" 
    85=A1'     86=E''     87=E''     88=E'      89=E'      90=A1'     91=A2' 
    92=A2"     93=E''     94=E''     95=E'      96=E'      97=A1'     98=E'  
    99=E'     100=A2"    101=E'     102=E'     103=A1'    104=A2'    105=A1' 
   106=E'     107=E'     108=E''    109=E''    110=A2"    111=A1"    112=E'  
   113=E'     114=E''    115=E''    116=A1'    117=E'     118=E'     119=A2" 
   120=A2'    121=E''    122=E''    123=E'     124=E'     125=A2'    126=A2" 
   127=E''    128=E''    129=E'     130=E'     131=A1"    132=A1'    133=E'' 
   134=E''    135=A1'    136=E'     137=E'     138=E'     139=E'     140=E'  
   141=E'     142=A2"    143=A1"    144=E''    145=E''    146=A1'    147=E'  
   148=E'     149=A2"    150=E''    151=E''    152=A2'    153=E'     154=E'  
   155=A1'    156=A1'    157=E'     158=E'  
 ...... END OF INITIAL ORBITAL SELECTION ......
 CPU     0: STEP CPU TIME=     0.36 TOTAL CPU TIME=          0.8 (      0.0 MIN)
 TOTAL WALL CLOCK TIME=          0.9 SECONDS, CPU UTILIZATION IS    85.23%

                    ----------------------
                    AO INTEGRAL TECHNOLOGY
                    ----------------------
     S,P,L SHELL ROTATED AXIS INTEGRALS, REPROGRAMMED BY
        KAZUYA ISHIMURA (IMS) AND JOSE SIERRA (SYNSTAR).
     S,P,D,L SHELL ROTATED AXIS INTEGRALS PROGRAMMED BY
        KAZUYA ISHIMURA (INSTITUTE FOR MOLECULAR SCIENCE).
     S,P,D,F,G SHELL TO TOTAL QUARTET ANGULAR MOMENTUM SUM 5,
        ERIC PROGRAM BY GRAHAM FLETCHER (ELORET AND NASA ADVANCED
        SUPERCOMPUTING DIVISION, AMES RESEARCH CENTER).
     S,P,D,F,G,L SHELL GENERAL RYS QUADRATURE PROGRAMMED BY
        MICHEL DUPUIS (PACIFIC NORTHWEST NATIONAL LABORATORY).

          --------------------
          2 ELECTRON INTEGRALS
          --------------------

 DIRECT SCF METHOD SKIPS INTEGRAL STORAGE ON DISK.
 DIRECT TRANSFORMATION SKIPS AO INTEGRAL STORAGE ON DISK.
  ...... END OF TWO-ELECTRON INTEGRALS .....
 CPU     0: STEP CPU TIME=     0.01 TOTAL CPU TIME=          0.8 (      0.0 MIN)
 TOTAL WALL CLOCK TIME=          0.9 SECONDS, CPU UTILIZATION IS    84.44%

          --------------------------
                 RHF SCF CALCULATION
          --------------------------

     NUCLEAR ENERGY =       268.2284123203
     MAXIT =  200     NPUNCH=    2
     EXTRAP=T  DAMP=F  SHIFT=F  RSTRCT=F  DIIS=T  DEM=F  SOSCF=F
     DENSITY MATRIX CONV=  2.00E-06
     MEMORY REQUIRED FOR RHF ITERS=    370608 WORDS.

 DIRECT SCF CALCULATION, SCHWRZ=T   FDIFF=T,  DIRTHR=  0.00E+00 NITDIR=10
 SCHWARZ INEQUALITY OVERHEAD:     17658 INTEGRALS, T=        0.14

                                                                                   NONZERO     BLOCKS
 ITER EX DEM     TOTAL ENERGY        E CHANGE  DENSITY CHANGE    DIIS ERROR      INTEGRALS    SKIPPED
          * * *   INITIATING DIIS PROCEDURE   * * *
   1  0  0    -1563.7999059634 -1563.7999059634   1.567460013   0.391295813       11211598      23443
   2  1  0    -1556.3727730261     7.4271329373   0.768721864   1.414119350       11211883      23696
   3  2  0    -1556.7884259626    -0.4156529365   0.733039662   1.335856991       10755174      33782
   4  3  0    -1557.4335766709    -0.6451507083   1.584368916   1.236737778       10956818      30585
   5  4  0    -1564.5612410130    -7.1276643421   0.628974992   0.398502854       11177478      23977
   6  5  0    -1565.3010628065    -0.7398217935   0.177946856   0.140550674       11148106      24977
   7  6  0    -1565.2147657329     0.0862970736   0.035364064   0.272988681       11043106      28514
   8  7  0    -1565.2224056493    -0.0076399163   0.109814273   0.264359437       10673569      34800
   9  8  0    -1565.3011531342    -0.0787474850   0.115875550   0.143838694       11004625      28664
  10  9  0    -1565.3319413335    -0.0307881992   0.043894280   0.048127901       10971680      29488
  11 10  0    -1565.3347290912    -0.0027877577   0.036809207   0.021927095       10621312      35175
  12 11  0    -1565.3357978344    -0.0010687432   0.010324187   0.007984029       10827666      32367
  13 12  0    -1565.3359186495    -0.0001208151   0.001726619   0.001392355       10447521      38065
  14 13  0    -1565.3359226131    -0.0000039636   0.000213901   0.000074030        9877496      45456
  15 14  0    -1565.3359226213    -0.0000000082   0.000059777   0.000016347        9060676      55915
  16 15  0    -1565.3359226234    -0.0000000021   0.000002193   0.000001567        8961128      58137
  17 16  0    -1565.3359226238    -0.0000000004   0.000000512   0.000000186        7093909      83643

          -----------------
          DENSITY CONVERGED
          -----------------
     TIME TO FORM FOCK OPERATORS=     196.1 SECONDS (      11.5 SEC/ITER)
     FOCK TIME ON FIRST ITERATION=      11.6, LAST ITERATION=      10.5
     TIME TO SOLVE SCF EQUATIONS=       0.3 SECONDS (       0.0 SEC/ITER)

 FINAL RHF ENERGY IS    -1565.3359226238 AFTER  17 ITERATIONS

          ------------
          EIGENVECTORS
          ------------

                      1          2          3          4          5
                 -293.9618   -45.8903   -41.1567   -41.1208   -41.1208
                     A1'        A1'        A2"        E'         E'  
    1  CO 1  S    0.982379   0.186987   0.000000  -0.000000  -0.000000
    2  CO 1  S   -0.186910   0.982556   0.000000  -0.000000  -0.000000
    3  CO 1  S   -0.000379   0.003061   0.000000  -0.000000  -0.000000
    4  CO 1  S    0.000264   0.003376   0.000000  -0.000000  -0.000000
    5  CO 1  S   -0.000129  -0.001652   0.000000  -0.000000  -0.000000
    6  CO 1  S    0.000180   0.002643   0.000000  -0.000000  -0.000000
    7  CO 1  S   -0.000018  -0.000351   0.000000  -0.000000  -0.000000
    8  CO 1  X   -0.000000  -0.000000   0.000000   1.000025  -0.000000
    9  CO 1  Y   -0.000000  -0.000000   0.000000  -0.000000   1.000025
   10  CO 1  Z   -0.000000  -0.000000   1.000027  -0.000000  -0.000000
   11  CO 1  X   -0.000000  -0.000000   0.000000   0.004478  -0.000000
   12  CO 1  Y   -0.000000  -0.000000   0.000000  -0.000000   0.004478
   13  CO 1  Z   -0.000000  -0.000000   0.003599  -0.000000  -0.000000
   14  CO 1  X   -0.000000  -0.000000   0.000000  -0.020295  -0.000000
   15  CO 1  Y   -0.000000  -0.000000   0.000000  -0.000000  -0.020295
   16  CO 1  Z   -0.000000  -0.000000  -0.019249  -0.000000  -0.000000
   17  CO 1  X   -0.000000  -0.000000   0.000000  -0.019948  -0.000000
   18  CO 1  Y   -0.000000  -0.000000   0.000000  -0.000000  -0.019948
   19  CO 1  Z   -0.000000  -0.000000  -0.018766  -0.000000  -0.000000
   20  CO 1  X   -0.000000  -0.000000   0.000000   0.003075  -0.000000
   21  CO 1  Y   -0.000000  -0.000000   0.000000  -0.000000   0.003075
   22  CO 1  Z   -0.000000  -0.000000   0.003045  -0.000000  -0.000000
   23  CO 1  X   -0.000000  -0.000000   0.000000  -0.000107  -0.000000
   24  CO 1  Y   -0.000000  -0.000000   0.000000  -0.000000  -0.000107
   25  CO 1  Z   -0.000000  -0.000000  -0.000113  -0.000000  -0.000000
   26  CO 1 XX   -0.000006  -0.000443   0.000000   0.000067  -0.000000
   27  CO 1 YY   -0.000006  -0.000443   0.000000  -0.000067  -0.000000
   28  CO 1 ZZ    0.000011   0.000886   0.000000  -0.000000  -0.000000
   29  CO 1 XY   -0.000000  -0.000000   0.000000  -0.000000  -0.000077
   30  CO 1 XZ   -0.000000  -0.000000   0.000000  -0.000000  -0.000000
   31  CO 1 YZ   -0.000000  -0.000000   0.000000  -0.000000  -0.000000
   32  CO 1 XX   -0.000007  -0.000304   0.000000   0.000016  -0.000000
   33  CO 1 YY   -0.000007  -0.000304   0.000000  -0.000016  -0.000000
   34  CO 1 ZZ    0.000015   0.000609   0.000000  -0.000000  -0.000000
   35  CO 1 XY   -0.000000  -0.000000   0.000000  -0.000000  -0.000019
   36  CO 1 XZ   -0.000000  -0.000000   0.000000  -0.000000  -0.000000
   37  CO 1 YZ   -0.000000  -0.000000   0.000000  -0.000000  -0.000000
   38  CO 1 XX   -0.000006  -0.000598   0.000000   0.000068  -0.000000
   39  CO 1 YY   -0.000006  -0.000598   0.000000  -0.000068  -0.000000
   40  CO 1 ZZ    0.000012   0.001195   0.000000  -0.000000  -0.000000
   41  CO 1 XY   -0.000000  -0.000000   0.000000  -0.000000  -0.000078
   42  CO 1 XZ   -0.000000  -0.000000   0.000000  -0.000000  -0.000000
   43  CO 1 YZ   -0.000000  -0.000000   0.000000  -0.000000  -0.000000
   44  CO 1 XX    0.000001   0.000078   0.000000  -0.000002  -0.000000
   45  CO 1 YY    0.000001   0.000078   0.000000   0.000002  -0.000000
   46  CO 1 ZZ   -0.000003  -0.000157   0.000000  -0.000000  -0.000000
   47  CO 1 XY   -0.000000  -0.000000   0.000000  -0.000000   0.000002
   48  CO 1 XZ   -0.000000  -0.000000   0.000000  -0.000000  -0.000000
   49  CO 1 YZ   -0.000000  -0.000000   0.000000  -0.000000  -0.000000
   50  CO 1 XXX   0.000003   0.000001   0.000000   0.000024  -0.000000
   51  CO 1 YYY  -0.000000  -0.000000   0.000000  -0.000000   0.000024
   52  CO 1 ZZZ  -0.000000  -0.000000   0.000397  -0.000000  -0.000000
   53  CO 1 XXY  -0.000000  -0.000000   0.000000  -0.000000   0.000011
   54  CO 1 XXZ  -0.000000  -0.000000  -0.000266  -0.000000  -0.000000
   55  CO 1 YYX  -0.000004  -0.000001   0.000000   0.000011  -0.000000
   56  CO 1 YYZ  -0.000000  -0.000000  -0.000266  -0.000000  -0.000000
   57  CO 1 ZZX  -0.000000  -0.000000   0.000000  -0.000043  -0.000000
   58  CO 1 ZZY  -0.000000  -0.000000   0.000000  -0.000000  -0.000043
   59  CO 1 XYZ  -0.000000  -0.000000   0.000000  -0.000000  -0.000000
   60  CO 1 XXX  -0.000004  -0.000048   0.000000   0.000057  -0.000000
   61  CO 1 YYY  -0.000000  -0.000000   0.000000  -0.000000   0.000057
   62  CO 1 ZZZ  -0.000000  -0.000000  -0.000084  -0.000000  -0.000000
   63  CO 1 XXY  -0.000000  -0.000000   0.000000  -0.000000   0.000026
   64  CO 1 XXZ  -0.000000  -0.000000   0.000056  -0.000000  -0.000000
   65  CO 1 YYX   0.000005   0.000064   0.000000   0.000026  -0.000000
   66  CO 1 YYZ  -0.000000  -0.000000   0.000056  -0.000000  -0.000000
   67  CO 1 ZZX  -0.000000  -0.000000   0.000000  -0.000103  -0.000000
   68  CO 1 ZZY  -0.000000  -0.000000   0.000000  -0.000000  -0.000103
   69  CO 1 XYZ  -0.000000  -0.000000   0.000000  -0.000000  -0.000000
   70  CO 1XXXX  -0.000000   0.000021   0.000000   0.000018  -0.000000
   71  CO 1YYYY  -0.000000   0.000021   0.000000   0.000004  -0.000000
   72  CO 1ZZZZ  -0.000000   0.000056   0.000000  -0.000000  -0.000000
   73  CO 1XXXY  -0.000000  -0.000000   0.000000  -0.000000   0.000011
   74  CO 1XXXZ  -0.000000  -0.000000   0.000002  -0.000000  -0.000000
   75  CO 1YYYX  -0.000000  -0.000000   0.000000  -0.000000  -0.000021
   76  CO 1YYYZ  -0.000000  -0.000000   0.000000  -0.000000  -0.000000
   77  CO 1ZZZX  -0.000000  -0.000000   0.000000  -0.000000  -0.000000
   78  CO 1ZZZY  -0.000000  -0.000000   0.000000  -0.000000  -0.000000
   79  CO 1XXYY  -0.000000   0.000012   0.000000  -0.000019  -0.000000
   80  CO 1XXZZ   0.000000  -0.000050   0.000000  -0.000012  -0.000000
   81  CO 1YYZZ   0.000000  -0.000050   0.000000   0.000012  -0.000000
   82  CO 1XXYZ  -0.000000  -0.000000   0.000000  -0.000000  -0.000000
   83  CO 1YYXZ  -0.000000  -0.000000  -0.000003  -0.000000  -0.000000
   84  CO 1ZZXY  -0.000000  -0.000000   0.000000  -0.000000   0.000014
   85  F  2  S   -0.000001  -0.000007   0.000000  -0.000024   0.000041
   86  F  2  S   -0.000002  -0.000007   0.000000  -0.000064   0.000110
   87  F  2  S   -0.000000  -0.000004   0.000000  -0.000008   0.000014
   88  F  2  S    0.000009   0.000195   0.000000   0.000007  -0.000013
   89  F  2  X   -0.000000   0.000002   0.000000  -0.000010   0.000010
   90  F  2  Y    0.000001  -0.000003   0.000000   0.000010  -0.000022
   91  F  2  Z   -0.000000  -0.000000  -0.000003  -0.000000  -0.000000
   92  F  2  X    0.000001   0.000018   0.000000  -0.000018   0.000038
   93  F  2  Y   -0.000001  -0.000030   0.000000   0.000038  -0.000062
   94  F  2  Z   -0.000000  -0.000000   0.000008  -0.000000  -0.000000
   95  F  2  X    0.000004   0.000103   0.000000  -0.000010   0.000018
   96  F  2  Y   -0.000008  -0.000178   0.000000   0.000018  -0.000030
   97  F  2  Z   -0.000000  -0.000000  -0.000013  -0.000000  -0.000000
   98  F  2 XX    0.000000  -0.000004   0.000000  -0.000003  -0.000005
   99  F  2 YY   -0.000001   0.000005   0.000000  -0.000003   0.000014
  100  F  2 ZZ    0.000001  -0.000001   0.000000   0.000006  -0.000010
  101  F  2 XY    0.000001  -0.000009   0.000000   0.000011  -0.000013
  102  F  2 XZ   -0.000000  -0.000000  -0.000000  -0.000000  -0.000000
  103  F  2 YZ   -0.000000  -0.000000   0.000001  -0.000000  -0.000000
  104  F  2 XX   -0.000000   0.000007   0.000000   0.000012   0.000006
  105  F  2 YY    0.000002   0.000013   0.000000  -0.000013  -0.000005
  106  F  2 ZZ   -0.000002  -0.000020   0.000000   0.000001  -0.000001
  107  F  2 XY   -0.000002  -0.000007   0.000000  -0.000006  -0.000007
  108  F  2 XZ   -0.000000  -0.000000   0.000003  -0.000000  -0.000000
  109  F  2 YZ   -0.000000  -0.000000  -0.000005  -0.000000  -0.000000
  110  F  2 XXX  -0.000000   0.000012   0.000000  -0.000003   0.000005
  111  F  2 YYY  -0.000000   0.000003   0.000000  -0.000002   0.000004
  112  F  2 ZZZ  -0.000000  -0.000000   0.000001  -0.000000  -0.000000
  113  F  2 XXY  -0.000000   0.000001   0.000000  -0.000002   0.000001
  114  F  2 XXZ  -0.000000  -0.000000  -0.000000  -0.000000  -0.000000
  115  F  2 YYX   0.000000  -0.000019   0.000000   0.000006  -0.000011
  116  F  2 YYZ  -0.000000  -0.000000  -0.000001  -0.000000  -0.000000
  117  F  2 ZZX  -0.000000   0.000003   0.000000  -0.000003   0.000004
  118  F  2 ZZY   0.000000  -0.000005   0.000000   0.000004  -0.000007
  119  F  2 XYZ  -0.000000  -0.000000   0.000001  -0.000000  -0.000000
  120  F  3  S   -0.000001  -0.000007   0.000000  -0.000024  -0.000041
  121  F  3  S   -0.000002  -0.000007   0.000000  -0.000064  -0.000110
  122  F  3  S   -0.000000  -0.000004   0.000000  -0.000008  -0.000014
  123  F  3  S    0.000009   0.000195   0.000000   0.000007   0.000013
  124  F  3  X   -0.000000   0.000002   0.000000  -0.000010  -0.000010
  125  F  3  Y   -0.000001   0.000003   0.000000  -0.000010  -0.000022
  126  F  3  Z   -0.000000  -0.000000  -0.000003  -0.000000  -0.000000
  127  F  3  X    0.000001   0.000018   0.000000  -0.000018  -0.000038
  128  F  3  Y    0.000001   0.000030   0.000000  -0.000038  -0.000062
  129  F  3  Z   -0.000000  -0.000000   0.000008  -0.000000  -0.000000
  130  F  3  X    0.000004   0.000103   0.000000  -0.000010  -0.000018
  131  F  3  Y    0.000008   0.000178   0.000000  -0.000018  -0.000030
  132  F  3  Z   -0.000000  -0.000000  -0.000013  -0.000000  -0.000000
  133  F  3 XX    0.000000  -0.000004   0.000000  -0.000003   0.000005
  134  F  3 YY   -0.000001   0.000005   0.000000  -0.000003  -0.000014
  135  F  3 ZZ    0.000001  -0.000001   0.000000   0.000006   0.000010
  136  F  3 XY   -0.000001   0.000009   0.000000  -0.000011  -0.000013
  137  F  3 XZ   -0.000000  -0.000000  -0.000000  -0.000000  -0.000000
  138  F  3 YZ   -0.000000  -0.000000  -0.000001  -0.000000  -0.000000
  139  F  3 XX   -0.000000   0.000007   0.000000   0.000012  -0.000006
  140  F  3 YY    0.000002   0.000013   0.000000  -0.000013   0.000005
  141  F  3 ZZ   -0.000002  -0.000020   0.000000   0.000001   0.000001
  142  F  3 XY    0.000002   0.000007   0.000000   0.000006  -0.000007
  143  F  3 XZ   -0.000000  -0.000000   0.000003  -0.000000  -0.000000
  144  F  3 YZ   -0.000000  -0.000000   0.000005  -0.000000  -0.000000
  145  F  3 XXX  -0.000000   0.000012   0.000000  -0.000003  -0.000005
  146  F  3 YYY   0.000000  -0.000003   0.000000   0.000002   0.000004
  147  F  3 ZZZ  -0.000000  -0.000000   0.000001  -0.000000  -0.000000
  148  F  3 XXY   0.000000  -0.000001   0.000000   0.000002   0.000001
  149  F  3 XXZ  -0.000000  -0.000000  -0.000000  -0.000000  -0.000000
  150  F  3 YYX   0.000000  -0.000019   0.000000   0.000006   0.000011
  151  F  3 YYZ  -0.000000  -0.000000  -0.000001  -0.000000  -0.000000
  152  F  3 ZZX  -0.000000   0.000003   0.000000  -0.000003  -0.000004
  153  F  3 ZZY  -0.000000   0.000005   0.000000  -0.000004  -0.000007
  154  F  3 XYZ  -0.000000  -0.000000  -0.000001  -0.000000  -0.000000
  155  F  4  S   -0.000001  -0.000007   0.000000   0.000048  -0.000000
  156  F  4  S   -0.000002  -0.000007   0.000000   0.000127  -0.000000
  157  F  4  S   -0.000000  -0.000004   0.000000   0.000016  -0.000000
  158  F  4  S    0.000009   0.000195   0.000000  -0.000015  -0.000000
  159  F  4  X    0.000001  -0.000003   0.000000  -0.000028  -0.000000
  160  F  4  Y   -0.000000  -0.000000   0.000000  -0.000000  -0.000004
  161  F  4  Z   -0.000000  -0.000000  -0.000003  -0.000000  -0.000000
  162  F  4  X   -0.000002  -0.000035   0.000000  -0.000084  -0.000000
  163  F  4  Y   -0.000000  -0.000000   0.000000  -0.000000   0.000004
  164  F  4  Z   -0.000000  -0.000000   0.000008  -0.000000  -0.000000
  165  F  4  X   -0.000009  -0.000206   0.000000  -0.000040  -0.000000
  166  F  4  Y   -0.000000  -0.000000   0.000000  -0.000000   0.000001
  167  F  4  Z   -0.000000  -0.000000  -0.000013  -0.000000  -0.000000
  168  F  4 XX   -0.000001   0.000010   0.000000   0.000022  -0.000000
  169  F  4 YY    0.000000  -0.000009   0.000000  -0.000011  -0.000000
  170  F  4 ZZ    0.000001  -0.000001   0.000000  -0.000011  -0.000000
  171  F  4 XY   -0.000000  -0.000000   0.000000  -0.000000   0.000007
  172  F  4 XZ   -0.000000  -0.000000   0.000001  -0.000000  -0.000000
  173  F  4 YZ   -0.000000  -0.000000   0.000000  -0.000000  -0.000000
  174  F  4 XX    0.000003   0.000017   0.000000   0.000004  -0.000000
  175  F  4 YY   -0.000001   0.000003   0.000000  -0.000003  -0.000000
  176  F  4 ZZ   -0.000002  -0.000020   0.000000  -0.000001  -0.000000
  177  F  4 XY   -0.000000  -0.000000   0.000000  -0.000000  -0.000018
  178  F  4 XZ   -0.000000  -0.000000  -0.000005  -0.000000  -0.000000
  179  F  4 YZ   -0.000000  -0.000000   0.000000  -0.000000  -0.000000
  180  F  4 XXX  -0.000000   0.000017   0.000000   0.000014  -0.000000
  181  F  4 YYY  -0.000000  -0.000000   0.000000  -0.000000  -0.000001
  182  F  4 ZZZ  -0.000000  -0.000000   0.000001  -0.000000  -0.000000
  183  F  4 XXY  -0.000000  -0.000000   0.000000  -0.000000   0.000001
  184  F  4 XXZ  -0.000000  -0.000000  -0.000001  -0.000000  -0.000000
  185  F  4 YYX   0.000000  -0.000017   0.000000  -0.000009  -0.000000
  186  F  4 YYZ  -0.000000  -0.000000   0.000000  -0.000000  -0.000000
  187  F  4 ZZX   0.000000  -0.000006   0.000000  -0.000010  -0.000000
  188  F  4 ZZY  -0.000000  -0.000000   0.000000  -0.000000  -0.000000
  189  F  4 XYZ  -0.000000  -0.000000   0.000000  -0.000000  -0.000000

                      6          7          8          9         10
                  -37.2221   -37.2221   -37.2221   -14.7911   -13.1857
                     A1'        E'         E'         A1'        E'  
    1  CO 1  S   -0.000006   0.000000  -0.000000  -0.003415   0.000000
    2  CO 1  S   -0.000018   0.000000  -0.000000  -0.012184   0.000000
    3  CO 1  S   -0.000111   0.000000  -0.000000   0.942905   0.000000
    4  CO 1  S   -0.000236   0.000000  -0.000000  -0.207406   0.000000
    5  CO 1  S   -0.000147   0.000000  -0.000000   0.027630   0.000000
    6  CO 1  S    0.000131   0.000000  -0.000000  -0.170935   0.000000
    7  CO 1  S   -0.000063   0.000000  -0.000000   0.001047   0.000000
    8  CO 1  X    0.000000  -0.000024  -0.000000  -0.000000  -0.005411
    9  CO 1  Y    0.000000   0.000000   0.000024  -0.000000   0.000000
   10  CO 1  Z    0.000000   0.000000  -0.000000  -0.000000   0.000000
   11  CO 1  X    0.000000  -0.000144  -0.000000  -0.000000   0.976750
   12  CO 1  Y    0.000000   0.000000   0.000144  -0.000000   0.000000
   13  CO 1  Z    0.000000   0.000000  -0.000000  -0.000000   0.000000
   14  CO 1  X    0.000000  -0.001741  -0.000000  -0.000000   0.869359
   15  CO 1  Y    0.000000   0.000000   0.001741  -0.000000   0.000000
   16  CO 1  Z    0.000000   0.000000  -0.000000  -0.000000   0.000000
   17  CO 1  X    0.000000  -0.002395  -0.000000  -0.000000   0.798314
   18  CO 1  Y    0.000000   0.000000   0.002395  -0.000000   0.000000
   19  CO 1  Z    0.000000   0.000000  -0.000000  -0.000000   0.000000
   20  CO 1  X    0.000000   0.000255  -0.000000  -0.000000  -0.188748
   21  CO 1  Y    0.000000   0.000000  -0.000255  -0.000000   0.000000
   22  CO 1  Z    0.000000   0.000000  -0.000000  -0.000000   0.000000
   23  CO 1  X    0.000000  -0.000074  -0.000000  -0.000000   0.000898
   24  CO 1  Y    0.000000   0.000000   0.000074  -0.000000   0.000000
   25  CO 1  Z    0.000000   0.000000  -0.000000  -0.000000   0.000000
   26  CO 1 XX   -0.000040  -0.000150  -0.000000   0.001192   0.003073
   27  CO 1 YY   -0.000040   0.000150  -0.000000   0.001192  -0.003073
   28  CO 1 ZZ    0.000081   0.000000  -0.000000  -0.002385   0.000000
   29  CO 1 XY    0.000000   0.000000  -0.000174  -0.000000   0.000000
   30  CO 1 XZ    0.000000   0.000000  -0.000000  -0.000000   0.000000
   31  CO 1 YZ    0.000000   0.000000  -0.000000  -0.000000   0.000000
   32  CO 1 XX   -0.000078  -0.000298  -0.000000   0.002115   0.003919
   33  CO 1 YY   -0.000078   0.000298  -0.000000   0.002115  -0.003919
   34  CO 1 ZZ    0.000156   0.000000  -0.000000  -0.004231   0.000000
   35  CO 1 XY    0.000000   0.000000  -0.000344  -0.000000   0.000000
   36  CO 1 XZ    0.000000   0.000000  -0.000000  -0.000000   0.000000
   37  CO 1 YZ    0.000000   0.000000  -0.000000  -0.000000   0.000000
   38  CO 1 XX   -0.000037  -0.000149  -0.000000  -0.001710  -0.001900
   39  CO 1 YY   -0.000037   0.000149  -0.000000  -0.001710   0.001900
   40  CO 1 ZZ    0.000074   0.000000  -0.000000   0.003420   0.000000
   41  CO 1 XY    0.000000   0.000000  -0.000172  -0.000000   0.000000
   42  CO 1 XZ    0.000000   0.000000  -0.000000  -0.000000   0.000000
   43  CO 1 YZ    0.000000   0.000000  -0.000000  -0.000000   0.000000
   44  CO 1 XX   -0.000064  -0.000297  -0.000000  -0.000395  -0.000359
   45  CO 1 YY   -0.000064   0.000297  -0.000000  -0.000395   0.000359
   46  CO 1 ZZ    0.000128   0.000000  -0.000000   0.000790   0.000000
   47  CO 1 XY    0.000000   0.000000  -0.000343  -0.000000   0.000000
   48  CO 1 XZ    0.000000   0.000000  -0.000000  -0.000000   0.000000
   49  CO 1 YZ    0.000000   0.000000  -0.000000  -0.000000   0.000000
   50  CO 1 XXX   0.000020   0.000012  -0.000000   0.000214  -0.000422
   51  CO 1 YYY   0.000000   0.000000  -0.000012  -0.000000   0.000000
   52  CO 1 ZZZ   0.000000   0.000000  -0.000000  -0.000000   0.000000
   53  CO 1 XXY   0.000000   0.000000  -0.000005  -0.000000   0.000000
   54  CO 1 XXZ   0.000000   0.000000  -0.000000  -0.000000   0.000000
   55  CO 1 YYX  -0.000026   0.000005  -0.000000  -0.000287  -0.000189
   56  CO 1 YYZ   0.000000   0.000000  -0.000000  -0.000000   0.000000
   57  CO 1 ZZX   0.000000  -0.000021  -0.000000  -0.000000   0.000755
   58  CO 1 ZZY   0.000000   0.000000   0.000021  -0.000000   0.000000
   59  CO 1 XYZ   0.000000   0.000000  -0.000000  -0.000000   0.000000
   60  CO 1 XXX  -0.000049  -0.000039  -0.000000   0.003612   0.004378
   61  CO 1 YYY   0.000000   0.000000   0.000039  -0.000000   0.000000
   62  CO 1 ZZZ   0.000000   0.000000  -0.000000  -0.000000   0.000000
   63  CO 1 XXY   0.000000   0.000000   0.000018  -0.000000   0.000000
   64  CO 1 XXZ   0.000000   0.000000  -0.000000  -0.000000   0.000000
   65  CO 1 YYX   0.000065  -0.000018  -0.000000  -0.004846   0.001958
   66  CO 1 YYZ   0.000000   0.000000  -0.000000  -0.000000   0.000000
   67  CO 1 ZZX   0.000000   0.000070  -0.000000  -0.000000  -0.007831
   68  CO 1 ZZY   0.000000   0.000000  -0.000070  -0.000000   0.000000
   69  CO 1 XYZ   0.000000   0.000000  -0.000000  -0.000000   0.000000
   70  CO 1XXXX   0.000001   0.000002  -0.000000   0.000228   0.001879
   71  CO 1YYYY   0.000001   0.000001  -0.000000   0.000228   0.001175
   72  CO 1ZZZZ   0.000002   0.000000  -0.000000   0.000607   0.000000
   73  CO 1XXXY   0.000000   0.000000  -0.000002  -0.000000   0.000000
   74  CO 1XXXZ   0.000000   0.000000  -0.000000  -0.000000   0.000000
   75  CO 1YYYX   0.000000   0.000000   0.000002  -0.000000   0.000000
   76  CO 1YYYZ   0.000000   0.000000  -0.000000  -0.000000   0.000000
   77  CO 1ZZZX   0.000000   0.000000  -0.000000  -0.000000   0.000000
   78  CO 1ZZZY   0.000000   0.000000  -0.000000  -0.000000   0.000000
   79  CO 1XXYY   0.000000  -0.000003  -0.000000   0.000133  -0.002682
   80  CO 1XXZZ  -0.000002  -0.000000  -0.000000  -0.000533  -0.000618
   81  CO 1YYZZ  -0.000002   0.000000  -0.000000  -0.000533   0.000618
   82  CO 1XXYZ   0.000000   0.000000  -0.000000  -0.000000   0.000000
   83  CO 1YYXZ   0.000000   0.000000  -0.000000  -0.000000   0.000000
   84  CO 1ZZXY   0.000000   0.000000  -0.000000  -0.000000   0.000000
   85  F  2  S    0.567628  -0.401343  -0.695146   0.000243  -0.000100
   86  F  2  S    0.001079  -0.000707  -0.001225   0.001735  -0.004002
   87  F  2  S    0.018361  -0.012988  -0.022497   0.000532  -0.001548
   88  F  2  S    0.001036  -0.000917  -0.001588  -0.001367   0.000502
   89  F  2  X   -0.000268   0.000191   0.000338   0.000340  -0.000863
   90  F  2  Y    0.000464  -0.000338  -0.000582  -0.000588   0.001453
   91  F  2  Z    0.000000   0.000000  -0.000000  -0.000000   0.000000
   92  F  2  X    0.000294  -0.000208  -0.000392   0.000383  -0.001188
   93  F  2  Y   -0.000509   0.000392   0.000661  -0.000663   0.002097
   94  F  2  Z    0.000000   0.000000  -0.000000  -0.000000   0.000000
   95  F  2  X   -0.000020  -0.000068   0.000036  -0.000660   0.000671
   96  F  2  Y    0.000034  -0.000036   0.000027   0.001144  -0.000566
   97  F  2  Z    0.000000   0.000000  -0.000000  -0.000000   0.000000
   98  F  2 XX   -0.000012   0.000008   0.000004  -0.000021  -0.000037
   99  F  2 YY    0.000058  -0.000045  -0.000068   0.000133  -0.000032
  100  F  2 ZZ   -0.000046   0.000037   0.000064  -0.000112   0.000070
  101  F  2 XY   -0.000070   0.000042   0.000078  -0.000154   0.000139
  102  F  2 XZ    0.000000   0.000000  -0.000000  -0.000000   0.000000
  103  F  2 YZ    0.000000   0.000000  -0.000000  -0.000000   0.000000
  104  F  2 XX   -0.000000   0.000000   0.000034  -0.000020   0.000374
  105  F  2 YY    0.000045  -0.000023  -0.000072  -0.000034  -0.000958
  106  F  2 ZZ   -0.000045   0.000022   0.000039   0.000054   0.000584
  107  F  2 XY   -0.000045   0.000061   0.000084   0.000014   0.000695
  108  F  2 XZ    0.000000   0.000000  -0.000000  -0.000000   0.000000
  109  F  2 YZ    0.000000   0.000000  -0.000000  -0.000000   0.000000
  110  F  2 XXX  -0.000008   0.000008   0.000015  -0.000058   0.000216
  111  F  2 YYY  -0.000008   0.000003   0.000010  -0.000028   0.000239
  112  F  2 ZZZ   0.000000   0.000000  -0.000000  -0.000000   0.000000
  113  F  2 XXY  -0.000004   0.000005   0.000002  -0.000013  -0.000028
  114  F  2 XXZ   0.000000   0.000000  -0.000000  -0.000000   0.000000
  115  F  2 YYX   0.000019  -0.000016  -0.000028   0.000106  -0.000428
  116  F  2 YYZ   0.000000   0.000000  -0.000000  -0.000000   0.000000
  117  F  2 ZZX  -0.000009   0.000006   0.000009  -0.000029   0.000139
  118  F  2 ZZY   0.000015  -0.000009  -0.000016   0.000050  -0.000294
  119  F  2 XYZ   0.000000   0.000000  -0.000000  -0.000000   0.000000
  120  F  3  S    0.567628  -0.401343   0.695146   0.000243  -0.000100
  121  F  3  S    0.001079  -0.000707   0.001225   0.001735  -0.004002
  122  F  3  S    0.018361  -0.012988   0.022497   0.000532  -0.001548
  123  F  3  S    0.001036  -0.000917   0.001588  -0.001367   0.000502
  124  F  3  X   -0.000268   0.000191  -0.000338   0.000340  -0.000863
  125  F  3  Y   -0.000464   0.000338  -0.000582   0.000588  -0.001453
  126  F  3  Z    0.000000   0.000000  -0.000000  -0.000000   0.000000
  127  F  3  X    0.000294  -0.000208   0.000392   0.000383  -0.001188
  128  F  3  Y    0.000509  -0.000392   0.000661   0.000663  -0.002097
  129  F  3  Z    0.000000   0.000000  -0.000000  -0.000000   0.000000
  130  F  3  X   -0.000020  -0.000068  -0.000036  -0.000660   0.000671
  131  F  3  Y   -0.000034   0.000036   0.000027  -0.001144   0.000566
  132  F  3  Z    0.000000   0.000000  -0.000000  -0.000000   0.000000
  133  F  3 XX   -0.000012   0.000008  -0.000004  -0.000021  -0.000037
  134  F  3 YY    0.000058  -0.000045   0.000068   0.000133  -0.000032
  135  F  3 ZZ   -0.000046   0.000037  -0.000064  -0.000112   0.000070
  136  F  3 XY    0.000070  -0.000042   0.000078   0.000154  -0.000139
  137  F  3 XZ    0.000000   0.000000  -0.000000  -0.000000   0.000000
  138  F  3 YZ    0.000000   0.000000  -0.000000  -0.000000   0.000000
  139  F  3 XX   -0.000000   0.000000  -0.000034  -0.000020   0.000374
  140  F  3 YY    0.000045  -0.000023   0.000072  -0.000034  -0.000958
  141  F  3 ZZ   -0.000045   0.000022  -0.000039   0.000054   0.000584
  142  F  3 XY    0.000045  -0.000061   0.000084  -0.000014  -0.000695
  143  F  3 XZ    0.000000   0.000000  -0.000000  -0.000000   0.000000
  144  F  3 YZ    0.000000   0.000000  -0.000000  -0.000000   0.000000
  145  F  3 XXX  -0.000008   0.000008  -0.000015  -0.000058   0.000216
  146  F  3 YYY   0.000008  -0.000003   0.000010   0.000028  -0.000239
  147  F  3 ZZZ   0.000000   0.000000  -0.000000  -0.000000   0.000000
  148  F  3 XXY   0.000004  -0.000005   0.000002   0.000013   0.000028
  149  F  3 XXZ   0.000000   0.000000  -0.000000  -0.000000   0.000000
  150  F  3 YYX   0.000019  -0.000016   0.000028   0.000106  -0.000428
  151  F  3 YYZ   0.000000   0.000000  -0.000000  -0.000000   0.000000
  152  F  3 ZZX  -0.000009   0.000006  -0.000009  -0.000029   0.000139
  153  F  3 ZZY  -0.000015   0.000009  -0.000016  -0.000050   0.000294
  154  F  3 XYZ   0.000000   0.000000  -0.000000  -0.000000   0.000000
  155  F  4  S    0.567628   0.802685  -0.000000   0.000243   0.000201
  156  F  4  S    0.001079   0.001414  -0.000000   0.001735   0.008003
  157  F  4  S    0.018361   0.025977  -0.000000   0.000532   0.003096
  158  F  4  S    0.001036   0.001834  -0.000000  -0.001367  -0.001003
  159  F  4  X    0.000536   0.000777  -0.000000  -0.000679  -0.003380
  160  F  4  Y    0.000000   0.000000   0.000004  -0.000000   0.000000
  161  F  4  Z    0.000000   0.000000  -0.000000  -0.000000   0.000000
  162  F  4  X   -0.000588  -0.000887  -0.000000  -0.000766  -0.004820
  163  F  4  Y    0.000000   0.000000  -0.000018  -0.000000   0.000000
  164  F  4  Z    0.000000   0.000000  -0.000000  -0.000000   0.000000
  165  F  4  X    0.000039  -0.000006  -0.000000   0.001321   0.001652
  166  F  4  Y    0.000000   0.000000   0.000089  -0.000000   0.000000
  167  F  4  Z    0.000000   0.000000  -0.000000  -0.000000   0.000000
  168  F  4 XX    0.000093   0.000126  -0.000000   0.000210   0.000276
  169  F  4 YY   -0.000047  -0.000052  -0.000000  -0.000097  -0.000137
  170  F  4 ZZ   -0.000046  -0.000074  -0.000000  -0.000112  -0.000139
  171  F  4 XY    0.000000   0.000000   0.000006  -0.000000   0.000000
  172  F  4 XZ    0.000000   0.000000  -0.000000  -0.000000   0.000000
  173  F  4 YZ    0.000000   0.000000  -0.000000  -0.000000   0.000000
  174  F  4 XX    0.000067   0.000126  -0.000000  -0.000041   0.002292
  175  F  4 YY   -0.000022  -0.000081  -0.000000  -0.000012  -0.001124
  176  F  4 ZZ   -0.000045  -0.000045  -0.000000   0.000054  -0.001168
  177  F  4 XY    0.000000   0.000000  -0.000022  -0.000000   0.000000
  178  F  4 XZ    0.000000   0.000000  -0.000000  -0.000000   0.000000
  179  F  4 YZ    0.000000   0.000000  -0.000000  -0.000000   0.000000
  180  F  4 XXX  -0.000022  -0.000034  -0.000000  -0.000106  -0.000949
  181  F  4 YYY   0.000000   0.000000  -0.000002  -0.000000   0.000000
  182  F  4 ZZZ   0.000000   0.000000  -0.000000  -0.000000   0.000000
  183  F  4 XXY   0.000000   0.000000   0.000004  -0.000000   0.000000
  184  F  4 XXZ   0.000000   0.000000  -0.000000  -0.000000   0.000000
  185  F  4 YYX   0.000013   0.000025  -0.000000   0.000085   0.000625
  186  F  4 YYZ   0.000000   0.000000  -0.000000  -0.000000   0.000000
  187  F  4 ZZX   0.000017   0.000021  -0.000000   0.000058   0.000647
  188  F  4 ZZY   0.000000   0.000000  -0.000001  -0.000000   0.000000
  189  F  4 XYZ   0.000000   0.000000  -0.000000  -0.000000   0.000000

                     11         12         13         14         15
                  -13.1857   -13.1409   -10.5350   -10.5350   -10.4419
                     E'         A2"        E'         E'         A1' 
    1  CO 1  S    0.000000   0.000000   0.000000  -0.000000   0.000208
    2  CO 1  S    0.000000   0.000000   0.000000  -0.000000   0.000536
    3  CO 1  S    0.000000   0.000000   0.000000  -0.000000  -0.007746
    4  CO 1  S    0.000000   0.000000   0.000000  -0.000000   0.052381
    5  CO 1  S    0.000000   0.000000   0.000000  -0.000000   0.041970
    6  CO 1  S    0.000000   0.000000   0.000000  -0.000000   0.049302
    7  CO 1  S    0.000000   0.000000   0.000000  -0.000000   0.010502
    8  CO 1  X    0.000000   0.000000  -0.000190  -0.000000  -0.000000
    9  CO 1  Y   -0.005411   0.000000   0.000000   0.000190  -0.000000
   10  CO 1  Z    0.000000  -0.004725   0.000000  -0.000000  -0.000000
   11  CO 1  X    0.000000   0.000000  -0.022025  -0.000000  -0.000000
   12  CO 1  Y    0.976750   0.000000   0.000000   0.022025  -0.000000
   13  CO 1  Z    0.000000   0.972572   0.000000  -0.000000  -0.000000
   14  CO 1  X    0.000000   0.000000  -0.197311  -0.000000  -0.000000
   15  CO 1  Y    0.869359   0.000000   0.000000   0.197311  -0.000000
   16  CO 1  Z    0.000000   0.991592   0.000000  -0.000000  -0.000000
   17  CO 1  X    0.000000   0.000000  -0.165637  -0.000000  -0.000000
   18  CO 1  Y    0.798314   0.000000   0.000000   0.165637  -0.000000
   19  CO 1  Z    0.000000   0.910928   0.000000  -0.000000  -0.000000
   20  CO 1  X    0.000000   0.000000   0.056161  -0.000000  -0.000000
   21  CO 1  Y   -0.188748   0.000000   0.000000  -0.056161  -0.000000
   22  CO 1  Z    0.000000  -0.214138   0.000000  -0.000000  -0.000000
   23  CO 1  X    0.000000   0.000000   0.000784  -0.000000  -0.000000
   24  CO 1  Y    0.000898   0.000000   0.000000  -0.000784  -0.000000
   25  CO 1  Z    0.000000   0.001607   0.000000  -0.000000  -0.000000
   26  CO 1 XX    0.000000   0.000000   0.517161  -0.000000   0.114330
   27  CO 1 YY    0.000000   0.000000  -0.517161  -0.000000   0.114330
   28  CO 1 ZZ    0.000000   0.000000   0.000000  -0.000000  -0.228661
   29  CO 1 XY   -0.003548   0.000000   0.000000   0.597166  -0.000000
   30  CO 1 XZ    0.000000   0.000000   0.000000  -0.000000  -0.000000
   31  CO 1 YZ    0.000000   0.000000   0.000000  -0.000000  -0.000000
   32  CO 1 XX    0.000000   0.000000  -0.159582  -0.000000  -0.027220
   33  CO 1 YY    0.000000   0.000000   0.159582  -0.000000  -0.027220
   34  CO 1 ZZ    0.000000   0.000000   0.000000  -0.000000   0.054439
   35  CO 1 XY   -0.004525   0.000000   0.000000  -0.184269  -0.000000
   36  CO 1 XZ    0.000000   0.000000   0.000000  -0.000000  -0.000000
   37  CO 1 YZ    0.000000   0.000000   0.000000  -0.000000  -0.000000
   38  CO 1 XX    0.000000   0.000000  -0.011722  -0.000000  -0.002906
   39  CO 1 YY    0.000000   0.000000   0.011722  -0.000000  -0.002906
   40  CO 1 ZZ    0.000000   0.000000   0.000000  -0.000000   0.005812
   41  CO 1 XY    0.002194   0.000000   0.000000  -0.013536  -0.000000
   42  CO 1 XZ    0.000000   0.000000   0.000000  -0.000000  -0.000000
   43  CO 1 YZ    0.000000   0.000000   0.000000  -0.000000  -0.000000
   44  CO 1 XX    0.000000   0.000000   0.001058  -0.000000   0.000150
   45  CO 1 YY    0.000000   0.000000  -0.001058  -0.000000   0.000150
   46  CO 1 ZZ    0.000000   0.000000   0.000000  -0.000000  -0.000300
   47  CO 1 XY    0.000414   0.000000   0.000000   0.001221  -0.000000
   48  CO 1 XZ    0.000000   0.000000   0.000000  -0.000000  -0.000000
   49  CO 1 YZ    0.000000   0.000000   0.000000  -0.000000  -0.000000
   50  CO 1 XXX   0.000000   0.000000   0.000864  -0.000000   0.002554
   51  CO 1 YYY  -0.000422   0.000000   0.000000  -0.000864  -0.000000
   52  CO 1 ZZZ   0.000000   0.003820   0.000000  -0.000000  -0.000000
   53  CO 1 XXY  -0.000189   0.000000   0.000000  -0.000386  -0.000000
   54  CO 1 XXZ   0.000000  -0.002562   0.000000  -0.000000  -0.000000
   55  CO 1 YYX   0.000000   0.000000   0.000386  -0.000000  -0.003427
   56  CO 1 YYZ   0.000000  -0.002562   0.000000  -0.000000  -0.000000
   57  CO 1 ZZX   0.000000   0.000000  -0.001545  -0.000000  -0.000000
   58  CO 1 ZZY   0.000755   0.000000   0.000000   0.001545  -0.000000
   59  CO 1 XYZ   0.000000   0.000000   0.000000  -0.000000  -0.000000
   60  CO 1 XXX   0.000000   0.000000   0.007818  -0.000000   0.021561
   61  CO 1 YYY   0.004378   0.000000   0.000000  -0.007818  -0.000000
   62  CO 1 ZZZ   0.000000  -0.004567   0.000000  -0.000000  -0.000000
   63  CO 1 XXY   0.001958   0.000000   0.000000  -0.003496  -0.000000
   64  CO 1 XXZ   0.000000   0.003064   0.000000  -0.000000  -0.000000
   65  CO 1 YYX   0.000000   0.000000   0.003496  -0.000000  -0.028927
   66  CO 1 YYZ   0.000000   0.003064   0.000000  -0.000000  -0.000000
   67  CO 1 ZZX   0.000000   0.000000  -0.013985  -0.000000  -0.000000
   68  CO 1 ZZY  -0.007831   0.000000   0.000000   0.013985  -0.000000
   69  CO 1 XYZ   0.000000   0.000000   0.000000  -0.000000  -0.000000
   70  CO 1XXXX   0.000000   0.000000   0.002301  -0.000000   0.000588
   71  CO 1YYYY   0.000000   0.000000   0.000082  -0.000000   0.000588
   72  CO 1ZZZZ   0.000000   0.000000   0.000000  -0.000000   0.001569
   73  CO 1XXXY   0.002042   0.000000   0.000000  -0.000963  -0.000000
   74  CO 1XXXZ   0.000000   0.000951   0.000000  -0.000000  -0.000000
   75  CO 1YYYX  -0.002574   0.000000   0.000000   0.002640  -0.000000
   76  CO 1YYYZ   0.000000   0.000000   0.000000  -0.000000  -0.000000
   77  CO 1ZZZX   0.000000   0.000000   0.000000  -0.000000  -0.000000
   78  CO 1ZZZY   0.000000   0.000000   0.000000  -0.000000  -0.000000
   79  CO 1XXYY   0.000000   0.000000  -0.002093  -0.000000   0.000345
   80  CO 1XXZZ   0.000000   0.000000  -0.001949  -0.000000  -0.001378
   81  CO 1YYZZ   0.000000   0.000000   0.001949  -0.000000  -0.001378
   82  CO 1XXYZ   0.000000   0.000000   0.000000  -0.000000  -0.000000
   83  CO 1YYXZ   0.000000  -0.001276   0.000000  -0.000000  -0.000000
   84  CO 1ZZXY   0.000714   0.000000   0.000000  -0.002251  -0.000000
   85  F  2  S    0.000174   0.000000  -0.000970  -0.001680   0.001822
   86  F  2  S    0.006931   0.000000  -0.195172  -0.338047   0.366160
   87  F  2  S    0.002681   0.000000  -0.092124  -0.159563   0.174437
   88  F  2  S   -0.000869   0.000000  -0.005470  -0.009474   0.004771
   89  F  2  X    0.001453   0.000000  -0.036840  -0.061581   0.065159
   90  F  2  Y   -0.002541   0.000000   0.061581   0.107948  -0.112858
   91  F  2  Z    0.000000   0.000051   0.000000  -0.000000  -0.000000
   92  F  2  X    0.002097   0.000000  -0.040698  -0.066608   0.069342
   93  F  2  Y   -0.003609   0.000000   0.066608   0.117611  -0.120104
   94  F  2  Z    0.000000   0.000014   0.000000  -0.000000  -0.000000
   95  F  2  X   -0.000566   0.000000  -0.000725  -0.001325  -0.000862
   96  F  2  Y    0.001325   0.000000   0.001325   0.002255   0.001493
   97  F  2  Z    0.000000   0.000154   0.000000  -0.000000  -0.000000
   98  F  2 XX   -0.000060   0.000000   0.000341   0.000606  -0.000527
   99  F  2 YY    0.000181   0.000000  -0.001827  -0.003179   0.003097
  100  F  2 ZZ   -0.000121   0.000000   0.001485   0.002573  -0.002570
  101  F  2 XY   -0.000158   0.000000   0.002185   0.003774  -0.003624
  102  F  2 XZ    0.000000   0.000009   0.000000  -0.000000  -0.000000
  103  F  2 YZ    0.000000  -0.000015   0.000000  -0.000000  -0.000000
  104  F  2 XX   -0.000096   0.000000   0.000679   0.004463  -0.003509
  105  F  2 YY    0.001108   0.000000  -0.010352  -0.021218   0.019069
  106  F  2 ZZ   -0.001012   0.000000   0.009674   0.016755  -0.015559
  107  F  2 XY   -0.001571   0.000000   0.014827   0.023489  -0.022578
  108  F  2 XZ    0.000000   0.000025   0.000000  -0.000000  -0.000000
  109  F  2 YZ    0.000000  -0.000044   0.000000  -0.000000  -0.000000
  110  F  2 XXX  -0.000344   0.000000   0.001404   0.002645  -0.002289
  111  F  2 YYY  -0.000224   0.000000   0.000624   0.002423  -0.001884
  112  F  2 ZZZ   0.000000  -0.000040   0.000000  -0.000000  -0.000000
  113  F  2 XXY  -0.000178   0.000000   0.001224   0.000538  -0.000842
  114  F  2 XXZ   0.000000   0.000004   0.000000  -0.000000  -0.000000
  115  F  2 YYX   0.000755   0.000000  -0.003293  -0.005609   0.005017
  116  F  2 YYZ   0.000000   0.000049   0.000000  -0.000000  -0.000000
  117  F  2 ZZX  -0.000294   0.000000   0.001410   0.002061  -0.001946
  118  F  2 ZZY   0.000478   0.000000  -0.002061  -0.003789   0.003370
  119  F  2 XYZ   0.000000  -0.000045   0.000000  -0.000000  -0.000000
  120  F  3  S   -0.000174   0.000000  -0.000970   0.001680   0.001822
  121  F  3  S   -0.006931   0.000000  -0.195172   0.338047   0.366160
  122  F  3  S   -0.002681   0.000000  -0.092124   0.159563   0.174437
  123  F  3  S    0.000869   0.000000  -0.005470   0.009474   0.004771
  124  F  3  X   -0.001453   0.000000  -0.036840   0.061581   0.065159
  125  F  3  Y   -0.002541   0.000000  -0.061581   0.107948   0.112858
  126  F  3  Z    0.000000   0.000051   0.000000  -0.000000  -0.000000
  127  F  3  X   -0.002097   0.000000  -0.040698   0.066608   0.069342
  128  F  3  Y   -0.003609   0.000000  -0.066608   0.117611   0.120104
  129  F  3  Z    0.000000   0.000014   0.000000  -0.000000  -0.000000
  130  F  3  X    0.000566   0.000000  -0.000725   0.001325  -0.000862
  131  F  3  Y    0.001325   0.000000  -0.001325   0.002255  -0.001493
  132  F  3  Z    0.000000   0.000154   0.000000  -0.000000  -0.000000
  133  F  3 XX    0.000060   0.000000   0.000341  -0.000606  -0.000527
  134  F  3 YY   -0.000181   0.000000  -0.001827   0.003179   0.003097
  135  F  3 ZZ    0.000121   0.000000   0.001485  -0.002573  -0.002570
  136  F  3 XY   -0.000158   0.000000  -0.002185   0.003774   0.003624
  137  F  3 XZ    0.000000   0.000009   0.000000  -0.000000  -0.000000
  138  F  3 YZ    0.000000   0.000015   0.000000  -0.000000  -0.000000
  139  F  3 XX    0.000096   0.000000   0.000679  -0.004463  -0.003509
  140  F  3 YY   -0.001108   0.000000  -0.010352   0.021218   0.019069
  141  F  3 ZZ    0.001012   0.000000   0.009674  -0.016755  -0.015559
  142  F  3 XY   -0.001571   0.000000  -0.014827   0.023489   0.022578
  143  F  3 XZ    0.000000   0.000025   0.000000  -0.000000  -0.000000
  144  F  3 YZ    0.000000   0.000044   0.000000  -0.000000  -0.000000
  145  F  3 XXX   0.000344   0.000000   0.001404  -0.002645  -0.002289
  146  F  3 YYY  -0.000224   0.000000  -0.000624   0.002423   0.001884
  147  F  3 ZZZ   0.000000  -0.000040   0.000000  -0.000000  -0.000000
  148  F  3 XXY  -0.000178   0.000000  -0.001224   0.000538   0.000842
  149  F  3 XXZ   0.000000   0.000004   0.000000  -0.000000  -0.000000
  150  F  3 YYX  -0.000755   0.000000  -0.003293   0.005609   0.005017
  151  F  3 YYZ   0.000000   0.000049   0.000000  -0.000000  -0.000000
  152  F  3 ZZX   0.000294   0.000000   0.001410  -0.002061  -0.001946
  153  F  3 ZZY   0.000478   0.000000   0.002061  -0.003789  -0.003370
  154  F  3 XYZ   0.000000   0.000045   0.000000  -0.000000  -0.000000
  155  F  4  S    0.000000   0.000000   0.001940  -0.000000   0.001822
  156  F  4  S    0.000000   0.000000   0.390343  -0.000000   0.366160
  157  F  4  S    0.000000   0.000000   0.184247  -0.000000   0.174437
  158  F  4  S    0.000000   0.000000   0.010939  -0.000000   0.004771
  159  F  4  X    0.000000   0.000000  -0.143501  -0.000000  -0.130317
  160  F  4  Y   -0.000024   0.000000   0.000000   0.001286  -0.000000
  161  F  4  Z    0.000000   0.000051   0.000000  -0.000000  -0.000000
  162  F  4  X    0.000000   0.000000  -0.156067  -0.000000  -0.138684
  163  F  4  Y    0.000022   0.000000   0.000000   0.002242  -0.000000
  164  F  4  Z    0.000000   0.000014   0.000000  -0.000000  -0.000000
  165  F  4  X    0.000000   0.000000  -0.003020  -0.000000   0.001724
  166  F  4  Y    0.000344   0.000000   0.000000  -0.000040  -0.000000
  167  F  4  Z    0.000000   0.000154   0.000000  -0.000000  -0.000000
  168  F  4 XX    0.000000   0.000000   0.005847  -0.000000   0.004909
  169  F  4 YY    0.000000   0.000000  -0.002876  -0.000000  -0.002339
  170  F  4 ZZ    0.000000   0.000000  -0.002971  -0.000000  -0.002570
  171  F  4 XY    0.000083   0.000000   0.000000  -0.000010  -0.000000
  172  F  4 XZ    0.000000  -0.000018   0.000000  -0.000000  -0.000000
  173  F  4 YZ    0.000000   0.000000   0.000000  -0.000000  -0.000000
  174  F  4 XX    0.000000   0.000000   0.037429  -0.000000   0.030358
  175  F  4 YY    0.000000   0.000000  -0.018082  -0.000000  -0.014798
  176  F  4 ZZ    0.000000   0.000000  -0.019347  -0.000000  -0.015559
  177  F  4 XY   -0.000368   0.000000   0.000000  -0.002191  -0.000000
  178  F  4 XZ    0.000000  -0.000050   0.000000  -0.000000  -0.000000
  179  F  4 YZ    0.000000   0.000000   0.000000  -0.000000  -0.000000
  180  F  4 XXX   0.000000   0.000000  -0.007167  -0.000000  -0.005552
  181  F  4 YYY  -0.000070   0.000000   0.000000  -0.000487  -0.000000
  182  F  4 ZZZ   0.000000  -0.000040   0.000000  -0.000000  -0.000000
  183  F  4 XXY   0.000124   0.000000   0.000000   0.000873  -0.000000
  184  F  4 XXZ   0.000000   0.000071   0.000000  -0.000000  -0.000000
  185  F  4 YYX   0.000000   0.000000   0.004637  -0.000000   0.003558
  186  F  4 YYZ   0.000000  -0.000018   0.000000  -0.000000  -0.000000
  187  F  4 ZZX   0.000000   0.000000   0.004979  -0.000000   0.003891
  188  F  4 ZZY  -0.000031   0.000000   0.000000  -0.000220  -0.000000
  189  F  4 XYZ   0.000000   0.000000   0.000000  -0.000000  -0.000000

                     16         17         18         19         20
                  -10.0541   -10.0541    -9.8535    -9.8036    -9.8036
                     E'         E'         A1'        E''        E'' 
    1  CO 1  S   -0.000000   0.000000  -0.000514  -0.000000   0.000000
    2  CO 1  S   -0.000000   0.000000  -0.001688  -0.000000   0.000000
    3  CO 1  S   -0.000000   0.000000  -0.011694  -0.000000   0.000000
    4  CO 1  S   -0.000000   0.000000  -0.031624  -0.000000   0.000000
    5  CO 1  S   -0.000000   0.000000   0.005870  -0.000000   0.000000
    6  CO 1  S   -0.000000   0.000000  -0.037518  -0.000000   0.000000
    7  CO 1  S   -0.000000   0.000000  -0.004589  -0.000000   0.000000
    8  CO 1  X    0.000129   0.000000  -0.000000  -0.000000   0.000000
    9  CO 1  Y   -0.000000  -0.000129  -0.000000  -0.000000   0.000000
   10  CO 1  Z   -0.000000   0.000000  -0.000000  -0.000000   0.000000
   11  CO 1  X    0.017532   0.000000  -0.000000  -0.000000   0.000000
   12  CO 1  Y   -0.000000  -0.017532  -0.000000  -0.000000   0.000000
   13  CO 1  Z   -0.000000   0.000000  -0.000000  -0.000000   0.000000
   14  CO 1  X   -0.057018   0.000000  -0.000000  -0.000000   0.000000
   15  CO 1  Y   -0.000000   0.057018  -0.000000  -0.000000   0.000000
   16  CO 1  Z   -0.000000   0.000000  -0.000000  -0.000000   0.000000
   17  CO 1  X   -0.090527   0.000000  -0.000000  -0.000000   0.000000
   18  CO 1  Y   -0.000000   0.090527  -0.000000  -0.000000   0.000000
   19  CO 1  Z   -0.000000   0.000000  -0.000000  -0.000000   0.000000
   20  CO 1  X   -0.005589   0.000000  -0.000000  -0.000000   0.000000
   21  CO 1  Y   -0.000000   0.005589  -0.000000  -0.000000   0.000000
   22  CO 1  Z   -0.000000   0.000000  -0.000000  -0.000000   0.000000
   23  CO 1  X    0.001788   0.000000  -0.000000  -0.000000   0.000000
   24  CO 1  Y   -0.000000  -0.001788  -0.000000  -0.000000   0.000000
   25  CO 1  Z   -0.000000   0.000000  -0.000000  -0.000000   0.000000
   26  CO 1 XX    0.577232   0.000000  -0.431722  -0.000000   0.000000
   27  CO 1 YY   -0.577232   0.000000  -0.431722  -0.000000   0.000000
   28  CO 1 ZZ   -0.000000   0.000000   0.863443  -0.000000   0.000000
   29  CO 1 XY   -0.000000   0.666530  -0.000000  -0.000000   0.000000
   30  CO 1 XZ   -0.000000   0.000000  -0.000000  -0.000000   0.899485
   31  CO 1 YZ   -0.000000   0.000000  -0.000000   0.899485   0.000000
   32  CO 1 XX   -0.216093   0.000000   0.154852  -0.000000   0.000000
   33  CO 1 YY    0.216093   0.000000   0.154852  -0.000000   0.000000
[...]
  126  F  3  Z    0.000000  -0.000000   0.000000
  127  F  3  X    0.054155   0.023890   0.003381
  128  F  3  Y    0.093799  -0.003381  -0.019985
  129  F  3  Z    0.000000  -0.000000   0.000000
  130  F  3  X   -0.397551  -0.354749   0.399183
  131  F  3  Y   -0.688579  -0.399183   0.815686
  132  F  3  Z    0.000000  -0.000000   0.000000
  133  F  3 XX    0.002395  -0.026583   0.061086
  134  F  3 YY    0.143981   0.067359  -0.131713
  135  F  3 ZZ   -0.146375  -0.040777   0.070627
  136  F  3 XY    0.141586   0.111312  -0.182770
  137  F  3 XZ    0.000000  -0.000000   0.000000
  138  F  3 YZ    0.000000  -0.000000   0.000000
  139  F  3 XX    0.002372   0.032454  -0.096222
  140  F  3 YY   -0.222579  -0.108654   0.228203
  141  F  3 ZZ    0.220207   0.076199  -0.131981
  142  F  3 XY   -0.224951  -0.187307   0.297753
  143  F  3 XZ    0.000000  -0.000000   0.000000
  144  F  3 YZ    0.000000  -0.000000   0.000000
  145  F  3 XXX   0.019811   0.021964  -0.042566
  146  F  3 YYY  -0.029983   0.000304   0.024388
  147  F  3 ZZZ   0.000000  -0.000000   0.000000
  148  F  3 XXY  -0.013409  -0.017140   0.000932
  149  F  3 XXZ   0.000000  -0.000000   0.000000
  150  F  3 YYX  -0.057546  -0.043800   0.073841
  151  F  3 YYZ   0.000000  -0.000000   0.000000
  152  F  3 ZZX   0.030966   0.014332  -0.016732
  153  F  3 ZZY   0.053636   0.016732  -0.033652
  154  F  3 XYZ   0.000000  -0.000000   0.000000
  155  F  4  S    1.612057  -2.357478   0.000000
  156  F  4  S    2.291364  -3.363318   0.000000
  157  F  4  S   -1.308104   1.884161   0.000000
  158  F  4  S   -2.147934   3.580087   0.000000
  159  F  4  X    0.009475   0.025666   0.000000
  160  F  4  Y    0.000000  -0.000000   0.008016
  161  F  4  Z    0.000000  -0.000000   0.000000
  162  F  4  X   -0.108310   0.018033   0.000000
  163  F  4  Y    0.000000  -0.000000  -0.025842
  164  F  4  Z    0.000000  -0.000000   0.000000
  165  F  4  X    0.795102  -1.046154   0.000000
  166  F  4  Y    0.000000  -0.000000   0.124281
  167  F  4  Z    0.000000  -0.000000   0.000000
  168  F  4 XX    0.214774  -0.254716   0.000000
  169  F  4 YY   -0.068398   0.173163   0.000000
  170  F  4 ZZ   -0.146375   0.081553   0.000000
  171  F  4 XY    0.000000  -0.000000   0.010028
  172  F  4 XZ    0.000000  -0.000000   0.000000
  173  F  4 YZ    0.000000  -0.000000   0.000000
  174  F  4 XX   -0.335054   0.427714   0.000000
  175  F  4 YY    0.114847  -0.275315   0.000000
  176  F  4 ZZ    0.220207  -0.152399   0.000000
  177  F  4 XY    0.000000  -0.000000  -0.026673
  178  F  4 XZ    0.000000  -0.000000   0.000000
  179  F  4 YZ    0.000000  -0.000000   0.000000
  180  F  4 XXX   0.071744  -0.084164   0.000000
  181  F  4 YYY   0.000000  -0.000000  -0.008540
  182  F  4 ZZZ   0.000000  -0.000000   0.000000
  183  F  4 XXY   0.000000  -0.000000   0.016129
  184  F  4 XXZ   0.000000  -0.000000   0.000000
  185  F  4 YYX  -0.034322   0.069606   0.000000
  186  F  4 YYZ   0.000000  -0.000000   0.000000
  187  F  4 ZZX  -0.061933   0.043312   0.000000
  188  F  4 ZZY   0.000000  -0.000000  -0.004672
  189  F  4 XYZ   0.000000  -0.000000   0.000000
 ...... END OF RHF CALCULATION ......
 CPU     0: STEP CPU TIME=   196.62 TOTAL CPU TIME=        197.4 (      3.3 MIN)
 TOTAL WALL CLOCK TIME=        207.6 SECONDS, CPU UTILIZATION IS    95.09%

     ----------------------------------------------------------------
     PROPERTY VALUES FOR THE RHF   SELF-CONSISTENT FIELD WAVEFUNCTION
     ----------------------------------------------------------------

          -----------------
          ENERGY COMPONENTS
          -----------------

         WAVEFUNCTION NORMALIZATION =       1.0000000000

                ONE ELECTRON ENERGY =   -2345.6646557511
                TWO ELECTRON ENERGY =     512.1003208070
           NUCLEAR REPULSION ENERGY =     268.2284123203
                                      ------------------
                       TOTAL ENERGY =   -1565.3359226238

 ELECTRON-ELECTRON POTENTIAL ENERGY =     512.1003208070
  NUCLEUS-ELECTRON POTENTIAL ENERGY =   -3958.1439821254
   NUCLEUS-NUCLEUS POTENTIAL ENERGY =     268.2284123203
                                      ------------------
             TOTAL POTENTIAL ENERGY =   -3177.8152489981
               TOTAL KINETIC ENERGY =    1612.4793263743
                 VIRIAL RATIO (V/T) =       1.9707634058

          ---------------------------------------
          MULLIKEN AND LOWDIN POPULATION ANALYSES
          ---------------------------------------

     ATOMIC MULLIKEN POPULATION IN EACH MOLECULAR ORBITAL

                      1          2          3          4          5

                  2.000000   2.000000   2.000000   2.000000   2.000000

    1             2.000000   1.999938   2.000000   1.999998   1.999998
    2             0.000000   0.000021  -0.000000   0.000000   0.000001
    3             0.000000   0.000021  -0.000000   0.000000   0.000001
    4             0.000000   0.000021  -0.000000   0.000001   0.000000

                      6          7          8          9         10

                  2.000000   2.000000   2.000000   2.000000   2.000000

    1            -0.000072  -0.000153  -0.000153   2.001642   1.999223
    2             0.666691   0.333359   1.000077  -0.000547   0.000147
    3             0.666691   0.333359   1.000077  -0.000547   0.000147
    4             0.666691   1.333436  -0.000000  -0.000547   0.000484

                     11         12         13         14         15

                  2.000000   2.000000   2.000000   2.000000   2.000000

    1             1.999223   1.999962   0.917485   0.917485   0.188791
    2             0.000372   0.000013   0.180493   0.541184   0.603736
    3             0.000372   0.000013   0.180493   0.541184   0.603736
    4             0.000034   0.000013   0.721529   0.000148   0.603736

               ----- POPULATIONS IN EACH AO -----
                             MULLIKEN      LOWDIN
              1  CO 1  S      2.00003     1.96081
              2  CO 1  S      2.00040     1.50943
              3  CO 1  S      1.87604     0.74622
              4  CO 1  S      0.09556     0.04977
              5  CO 1  S      0.03006     0.03930
              6  CO 1  S      0.03340     0.06702
              7  CO 1  S      0.00585     0.01235
              8  CO 1  X      2.00007     1.95354
              9  CO 1  Y      2.00007     1.95353
             10  CO 1  Z      2.00007     1.95368
             11  CO 1  X      1.93644     0.86241
             12  CO 1  Y      1.93644     0.86199
             13  CO 1  Z      1.92363     0.87830
             14  CO 1  X      0.29540     0.03532
             15  CO 1  Y      0.29540     0.03588
             16  CO 1  Z      0.22131     0.01942
             17  CO 1  X     -0.24824     0.02532
             18  CO 1  Y     -0.24824     0.02598
             19  CO 1  Z     -0.19050     0.00848
             20  CO 1  X      0.03467     0.03773
             21  CO 1  Y      0.03467     0.03786
             22  CO 1  Z      0.04524     0.03984
             23  CO 1  X      0.00036     0.00369
             24  CO 1  Y      0.00036     0.00363
             25  CO 1  Z      0.00017     0.00034
             26  CO 1 XX      0.14999     0.51205
             27  CO 1 YY      0.85768     0.51045
             28  CO 1 ZZ      0.85768     0.27696
             29  CO 1 XY      0.00000     0.54428
             30  CO 1 XZ      0.00000     0.00000
             31  CO 1 YZ      0.00000    -0.00000
             32  CO 1 XX     -0.01083     0.13663
             33  CO 1 YY      0.03491     0.13680
             34  CO 1 ZZ      0.03491     0.11146
             35  CO 1 XY      0.00000     0.04214
             36  CO 1 XZ      0.00000     0.00000
             37  CO 1 YZ      0.00000    -0.00000
             38  CO 1 XX      0.00100     0.06576
             39  CO 1 YY      0.00263     0.06580
             40  CO 1 ZZ      0.00263     0.06433
             41  CO 1 XY      0.00000     0.00228
             42  CO 1 XZ      0.00000     0.00000
             43  CO 1 YZ      0.00000    -0.00000
             44  CO 1 XX      0.00016     0.01934
             45  CO 1 YY      0.00070     0.01944
             46  CO 1 ZZ      0.00070     0.00093
             47  CO 1 XY      0.00000     0.02083
             48  CO 1 XZ      0.00000     0.00000
             49  CO 1 YZ      0.00000     0.00000
             50  CO 1 XXX     0.00011     0.47399
             51  CO 1 YYY     0.00000     0.47384
             52  CO 1 ZZZ     0.00002     0.48291
             53  CO 1 XXY     0.00002     0.20455
             54  CO 1 XXZ     0.00002     0.20490
             55  CO 1 YYX     0.00000     0.20462
             56  CO 1 YYZ     0.00000     0.20490
             57  CO 1 ZZX     0.00000     0.20329
             58  CO 1 ZZY     0.00000     0.20323
             59  CO 1 XYZ     0.00000    -0.00000
             60  CO 1 XXX     0.00851     0.12632
             61  CO 1 YYY     0.00000     0.12445
             62  CO 1 ZZZ     0.00186     0.11229
             63  CO 1 XXY     0.00003     0.05044
             64  CO 1 XXZ     0.00186     0.04690
             65  CO 1 YYX     0.00000     0.05660
             66  CO 1 YYZ     0.00000     0.04690
             67  CO 1 ZZX     0.00000     0.04620
             68  CO 1 ZZY     0.00000     0.04626
             69  CO 1 XYZ     0.00000    -0.00000
             70  CO 1XXXX     0.00003     0.18571
             71  CO 1YYYY     0.00000     0.18394
             72  CO 1ZZZZ     0.00003     0.09115
             73  CO 1XXXY     0.00000     0.11258
             74  CO 1XXXZ     0.00002     0.00000
             75  CO 1YYYX     0.00000     0.11667
             76  CO 1YYYZ     0.00003    -0.00000
             77  CO 1ZZZX     0.00000     0.00000
             78  CO 1ZZZY     0.00003    -0.00000
             79  CO 1XXYY     0.00000     0.08524
             80  CO 1XXZZ     0.00000     0.10608
             81  CO 1YYZZ     0.00000     0.10611
             82  CO 1XXYZ     0.00000     0.00000
             83  CO 1YYXZ     0.00000     0.00000
             84  CO 1ZZXY     0.00000     0.04971
             85  F  2  S      1.96526     1.58234
             86  F  2  S      0.74461     0.43939
             87  F  2  S      0.31219     0.39037
             88  F  2  S      0.01364     0.09973
             89  F  2  X      0.03148     0.02728
             90  F  2  Y      0.09442     0.08203
             91  F  2  Z      0.00000     0.00000
             92  F  2  X      0.03822     0.01952
             93  F  2  Y      0.11458     0.05892
             94  F  2  Z      0.00000     0.00000
             95  F  2  X     -0.00007     0.01008
             96  F  2  Y     -0.00026     0.02710
             97  F  2  Z      0.00001     0.00033
             98  F  2 XX      0.00015     0.11642
             99  F  2 YY      0.00011     0.12720
            100  F  2 ZZ      0.00032     0.11092
            101  F  2 XY      0.00000     0.00036
            102  F  2 XZ      0.00000     0.00000
            103  F  2 YZ      0.00000     0.00000
            104  F  2 XX      0.00269     0.04561
            105  F  2 YY      0.00199     0.07711
            106  F  2 ZZ      0.00576     0.03206
            107  F  2 XY      0.00000     0.00793
            108  F  2 XZ      0.00000     0.00001
            109  F  2 YZ      0.00000     0.00004
            110  F  2 XXX     0.00026     0.00877
            111  F  2 YYY     0.00000     0.03141
            112  F  2 ZZZ     0.00004     0.00000
            113  F  2 XXY     0.00000     0.01426
            114  F  2 XXZ     0.00012     0.00000
            115  F  2 YYX     0.00000     0.00715
            116  F  2 YYZ     0.00001     0.00000
            117  F  2 ZZX     0.00000     0.00368
            118  F  2 ZZY     0.00000     0.01108
            119  F  2 XYZ     0.00000     0.00000
            120  F  3  S      1.96526     1.58234
            121  F  3  S      0.74461     0.43939
            122  F  3  S      0.31219     0.39037
            123  F  3  S      0.01364     0.09973
            124  F  3  X      0.03148     0.02728
            125  F  3  Y      0.09442     0.08203
            126  F  3  Z      0.00000     0.00000
            127  F  3  X      0.03822     0.01952
            128  F  3  Y      0.11458     0.05892
            129  F  3  Z      0.00000     0.00000
            130  F  3  X     -0.00007     0.01008
            131  F  3  Y     -0.00026     0.02710
            132  F  3  Z      0.00001     0.00033
            133  F  3 XX      0.00015     0.11642
            134  F  3 YY      0.00011     0.12720
            135  F  3 ZZ      0.00032     0.11092
            136  F  3 XY      0.00000     0.00036
            137  F  3 XZ      0.00000     0.00000
            138  F  3 YZ      0.00000     0.00000
            139  F  3 XX      0.00269     0.04561
            140  F  3 YY      0.00199     0.07711
            141  F  3 ZZ      0.00576     0.03206
            142  F  3 XY      0.00000     0.00793
            143  F  3 XZ      0.00000     0.00001
            144  F  3 YZ      0.00000     0.00004
            145  F  3 XXX     0.00026     0.00877
            146  F  3 YYY     0.00000     0.03141
            147  F  3 ZZZ     0.00004     0.00000
            148  F  3 XXY     0.00000     0.01426
            149  F  3 XXZ     0.00012     0.00000
            150  F  3 YYX     0.00000     0.00715
            151  F  3 YYZ     0.00001     0.00000
            152  F  3 ZZX     0.00000     0.00368
            153  F  3 ZZY     0.00000     0.01108
            154  F  3 XYZ     0.00000     0.00000
            155  F  4  S      1.96526     1.58248
            156  F  4  S      0.74461     0.43945
            157  F  4  S      0.31219     0.39060
            158  F  4  S      0.01364     0.10153
            159  F  4  X      0.12589     0.10928
            160  F  4  Y      0.00001     0.00000
            161  F  4  Z      0.00000     0.00000
            162  F  4  X      0.15277     0.08006
            163  F  4  Y      0.00004     0.00002
            164  F  4  Z      0.00000     0.00000
            165  F  4  X     -0.00035     0.03713
            166  F  4  Y      0.00002     0.00068
            167  F  4  Z      0.00001     0.00033
            168  F  4 XX      0.00015     0.13245
            169  F  4 YY      0.00042     0.11148
            170  F  4 ZZ     -0.00000     0.11102
            171  F  4 XY      0.00000     0.00000
            172  F  4 XZ      0.00000     0.00000
            173  F  4 YZ      0.00000     0.00000
            174  F  4 XX      0.00269     0.09945
            175  F  4 YY      0.00765     0.03270
            176  F  4 ZZ      0.00010     0.03229
            177  F  4 XY      0.00000     0.00044
            178  F  4 XZ      0.00000     0.00005
            179  F  4 YZ      0.00000     0.00000
            180  F  4 XXX     0.00026     0.04570
            181  F  4 YYY     0.00000     0.00000
            182  F  4 ZZZ     0.00017     0.00000
            183  F  4 XXY     0.00000     0.00004
            184  F  4 XXZ     0.00000     0.00000
            185  F  4 YYX     0.00000     0.01481
            186  F  4 YYZ     0.00001     0.00000
            187  F  4 ZZX     0.00000     0.01472
            188  F  4 ZZY     0.00000     0.00000
            189  F  4 XYZ     0.00000     0.00000

          ----- MULLIKEN ATOMIC OVERLAP POPULATIONS -----
          (OFF-DIAGONAL ELEMENTS NEED TO BE MULTIPLIED BY 2)

             1           2           3           4

    1   19.8628023
    2    0.0535215   3.2721315
    3    0.0535215  -0.0000543   3.2721315
    4    0.0535215  -0.0000543  -0.0000543   3.2721315

          TOTAL MULLIKEN AND LOWDIN ATOMIC POPULATIONS
       ATOM         MULL.POP.    CHARGE          LOW.POP.     CHARGE
    1 CO           20.023367    6.976633        20.001076    6.998924
    2 F             3.325544    5.674456         3.331116    5.668884
    3 F             3.325544    5.674456         3.331116    5.668884
    4 F             3.325544    5.674456         3.336693    5.663307

          MULLIKEN SPHERICAL HARMONIC POPULATIONS
       ATOM           S       P       D      F      G      H      I    TOTAL
    1 CO            6.04   12.04    1.93   0.01   0.00   0.00   0.00   20.02
    2 F             3.04    0.28    0.01   0.00   0.00   0.00   0.00    3.33
    3 F             3.04    0.28    0.01   0.00   0.00   0.00   0.00    3.33
    4 F             3.04    0.28    0.01   0.00   0.00   0.00   0.00    3.33

          -------------------------------
          BOND ORDER AND VALENCE ANALYSIS     BOND ORDER THRESHOLD=0.050
          -------------------------------

                   BOND                       BOND                       BOND
  ATOM PAIR DIST  ORDER      ATOM PAIR DIST  ORDER      ATOM PAIR DIST  ORDER
    1   2  1.715  0.774        1   3  1.715  0.774        1   4  1.715  0.774
    2   3  2.970  0.060        2   4  2.970  0.060        3   4  2.970  0.060

                       TOTAL       BONDED        FREE
      ATOM            VALENCE     VALENCE     VALENCE
    1 CO                2.322       2.322      -0.000
    2 F                 0.893       0.893      -0.000
    3 F                 0.893       0.893      -0.000
    4 F                 0.893       0.893      -0.000

          ---------------------
          ELECTROSTATIC MOMENTS
          ---------------------

 POINT   1           X           Y           Z (BOHR)    CHARGE
                -0.000000    0.000000    0.000000       24.00 (A.U.)
         DX          DY          DZ         /D/  (DEBYE)
    -0.000000   -0.000000    0.000000    0.000000
 ...... END OF PROPERTY EVALUATION ......
 CPU     0: STEP CPU TIME=     0.14 TOTAL CPU TIME=        197.5 (      3.3 MIN)
 TOTAL WALL CLOCK TIME=        207.9 SECONDS, CPU UTILIZATION IS    95.03%
               580000  WORDS OF DYNAMIC MEMORY USED
 EXECUTION OF GAMESS TERMINATED NORMALLY Sat Dec 16 16:48:54 2023
 DDI: 263640 bytes (0.3 MB / 0 MWords) used by master data server.
Note: The following floating-point exceptions are signalling: IEEE_DENORMAL
Note: The following floating-point exceptions are signalling: IEEE_DENORMAL
Note: The following floating-point exceptions are signalling: IEEE_DENORMAL
Note: The following floating-point exceptions are signalling: IEEE_DENORMAL
Note: The following floating-point exceptions are signalling: IEEE_DENORMAL
Note: The following floating-point exceptions are signalling: IEEE_DENORMAL
Note: The following floating-point exceptions are signalling: IEEE_DENORMAL
Note: The following floating-point exceptions are signalling: IEEE_DENORMAL
Note: The following floating-point exceptions are signalling: IEEE_DENORMAL
Note: The following floating-point exceptions are signalling: IEEE_DENORMAL

 ----------------------------------------
 CPU timing information for all processes
 ========================================
 0: 197.294 + 0.243 = 197.538
 1: 198.476 + 0.124 = 198.600
 2: 198.927 + 0.104 = 199.31
 3: 198.161 + 0.112 = 198.273
 4: 198.289 + 0.160 = 198.449
 5: 196.918 + 0.60 = 196.978
 6: 197.185 + 0.179 = 197.365
 7: 199.73 + 0.88 = 199.161
 8: 199.655 + 0.67 = 199.723
 9: 197.586 + 0.112 = 197.698
 10: 197.849 + 0.100 = 197.949
 11: 197.370 + 0.48 = 197.418
 ----------------------------------------
Note: The following floating-point exceptions are signalling: IEEE_DENORMAL
Note: The following floating-point exceptions are signalling: IEEE_DENORMAL
 ddikick.x: exited gracefully.
unset echo
----- accounting info -----
Files used on the master node io002 were:
-rw-r--r-- 1 bjb2chen nooijen  491438 Dec 16 16:45 /home/bjb2chen/gmsscr//CoF3_cat24_cct_rhf_D3h_e_F2sfilled.F05
-rw-r--r-- 1 bjb2chen nooijen 4253600 Dec 16 16:48 /home/bjb2chen/gmsscr//CoF3_cat24_cct_rhf_D3h_e_F2sfilled.F10
ls: No match.
ls: No match.
ls: No match.
Sat 16 Dec 2023 04:48:58 PM EST
0.316u 0.084s 3:31.54 0.1%	0+0k 960+1152io 0pf+0w
