----- GAMESS execution script 'rungms' -----
This job is running on host io001
under operating system Linux at Mon 04 Dec 2023 10:14:15 AM EST
Available scratch disk space (Kbyte units) at beginning of the job is
Filesystem             1K-blocks       Used Available Use% Mounted on
helmholtz.nlogn:/home 6391504896 5230493696 838872064  87% /home
GAMESS temporary binary files will be written to /home/bjb2chen/gmsscr/
GAMESS supplementary output files will be written to /home/bjb2chen/gamess/vibronics/ash3/4state
Copying input file ash3cat_rohf_cct_gmcpt_7o7e_C1_4st_dmo.inp to your run's scratch directory...
cp ash3cat_rohf_cct_gmcpt_7o7e_C1_4st_dmo.inp /home/bjb2chen/gmsscr//ash3cat_rohf_cct_gmcpt_7o7e_C1_4st_dmo.F05
unset echo
 
Assuming a single but multicore node.
 
/home/bjb2chen/gamess/ddikick.x /home/bjb2chen/gamess/gamess.00.x ash3cat_rohf_cct_gmcpt_7o7e_C1_4st_dmo -ddi 1 4 io001:cpus=4 -scr /home/bjb2chen/gmsscr/

 Distributed Data Interface kickoff program.
 Initiating 4 compute processes on 1 nodes to run the following command:
 /home/bjb2chen/gamess/gamess.00.x ash3cat_rohf_cct_gmcpt_7o7e_C1_4st_dmo 

          ******************************************************
          *         GAMESS VERSION = 02 AUG 2018 (R2)         *
          *             FROM IOWA STATE UNIVERSITY             *
          * M.W.SCHMIDT, K.K.BALDRIDGE, J.A.BOATZ, S.T.ELBERT, *
          *   M.S.GORDON, J.H.JENSEN, S.KOSEKI, N.MATSUNAGA,   *
          *          K.A.NGUYEN, S.J.SU, T.L.WINDUS,           *
          *       TOGETHER WITH M.DUPUIS, J.A.MONTGOMERY       *
          *         J.COMPUT.CHEM.  14, 1347-1363(1993)        *
          **************** 64 BIT LINUX VERSION ****************

  SINCE 1993, STUDENTS AND POSTDOCS WORKING AT IOWA STATE UNIVERSITY
  AND ALSO IN THEIR VARIOUS JOBS AFTER LEAVING ISU HAVE MADE IMPORTANT
  CONTRIBUTIONS TO THE CODE:
     IVANA ADAMOVIC, CHRISTINE AIKENS, YURI ALEXEEV, POOJA ARORA,
     ANDREY ASADCHEV, ROB BELL, PRADIPTA BANDYOPADHYAY, JONATHAN BENTZ,
     BRETT BODE, KURT BRORSEN, CALEB CARLIN, GALINA CHABAN, WEI CHEN,
     CHEOL HO CHOI, PAUL DAY, ALBERT DEFUSCO, NUWAN DESILVA, TIM DUDLEY,
     DMITRI FEDOROV, ALEX FINDLATER, GRAHAM FLETCHER, MARK FREITAG,
     KURT GLAESEMANN, ANASTASIA GUININA,
     DAN KEMP, GRANT MERRILL, NORIYUKI MINEZAWA, JONATHAN MULLIN,
     TAKESHI NAGATA, SEAN NEDD, HEATHER NETZLOFF, BOSILJKA NJEGIC, RYAN OLSON,
     MIKE PAK, BUU PHAM,
     SPENCER PRUITT, LUKE ROSKOP, JIM SHOEMAKER, LYUDMILA SLIPCHENKO,
     TONY SMITH, SAROM SOK LEANG, JIE SONG, TETSUYA TAKETSUGU, SIMON WEBB,
     PENG XU, SOOHAENG YOO, FEDERICO ZAHARIEV

  ADDITIONAL CODE HAS BEEN PROVIDED BY COLLABORATORS IN OTHER GROUPS:
     IOWA STATE UNIVERSITY:
          JOE IVANIC, AARON WEST, LAIMUTIS BYTAUTAS, KLAUS RUEDENBERG
     UNIVERSITY OF TOKYO: KIMIHIKO HIRAO, TAKAHITO NAKAJIMA,
          TAKAO TSUNEDA, MUNEAKI KAMIYA, SUSUMU YANAGISAWA,
          KIYOSHI YAGI, MAHITO CHIBA, SEIKEN TOKURA, NAOAKI KAWAKAMI
     UNIVERSITY OF AARHUS: FRANK JENSEN
     UNIVERSITY OF IOWA: VISVALDAS KAIRYS, HUI LI
     NATIONAL INST. OF STANDARDS AND TECHNOLOGY: WALT STEVENS, DAVID GARMER
     UNIVERSITY OF PISA: BENEDETTA MENNUCCI, JACOPO TOMASI
     UNIVERSITY OF MEMPHIS: HENRY KURTZ, PRAKASHAN KORAMBATH
     UNIVERSITY OF ALBERTA: TOBY ZENG, MARIUSZ KLOBUKOWSKI
     UNIVERSITY OF NEW ENGLAND: MARK SPACKMAN
     MIE UNIVERSITY: HIROAKI UMEDA
     NAT. INST. OF ADVANCED INDUSTRIAL SCIENCE AND TECHNOLOGY: KAZUO KITAURA
     MICHIGAN STATE UNIVERSITY:
          KAROL KOWALSKI, MARTA WLOCH, JEFFREY GOUR, JESSE LUTZ,
          WEI LI, JUN SHEN, J. EMILIANO DEUSTUA, PIOTR PIECUCH
     UNIVERSITY OF MINNESOTA:
          YINAN SHU
     UNIVERSITY OF SILESIA: MONIKA MUSIAL, STANISLAW KUCHARSKI
     FACULTES UNIVERSITAIRES NOTRE-DAME DE LA PAIX:
          OLIVIER QUINET, BENOIT CHAMPAGNE
     UNIVERSITY OF CALIFORNIA - SANTA BARBARA: BERNARD KIRTMAN
     INSTITUTE FOR MOLECULAR SCIENCE:
          KAZUYA ISHIMURA, MICHIO KATOUDA, AND SHIGERU NAGASE
     UNIVERSITY OF NOTRE DAME: ANNA POMOGAEVA, DAN CHIPMAN
     KYUSHU UNIVERSITY:
          HARUYUKI NAKANO,
          FENG LONG GU, JACEK KORCHOWIEC, MARCIN MAKOWSKI, AND YURIKO AOKI,
          HIROTOSHI MORI AND EISAKU MIYOSHI
     PENNSYLVANIA STATE UNIVERSITY:
          TZVETELIN IORDANOV, CHET SWALINA, JONATHAN SKONE,
          SHARON HAMMES-SCHIFFER
     WASEDA UNIVERSITY:
          MASATO KOBAYASHI, TOMOKO AKAMA, TSUGUKI TOUMA,
          TAKESHI YOSHIKAWA, YASUHIRO IKABATA, JUNJI SEINO,
          YUYA NAKAJIMA, HIROMI NAKAI
     NANJING UNIVERSITY: SHUHUA LI
     UNIVERSITY OF NEBRASKA:
          PEIFENG SU, DEJUN SI, NANDUN THELLAMUREGE, YALI WANG, HUI LI
     UNIVERSITY OF ZURICH: ROBERTO PEVERATI, KIM BALDRIDGE
     N. COPERNICUS UNIVERSITY AND JACKSON STATE UNIVERSITY:
          MARIA BARYSZ
     UNIVERSITY OF COPENHAGEN: Jimmy Kromann, CASPER STEINMANN
     TOKYO INSTITUTE OF TECHNOLOGY: HIROYA NAKATA
     NAGOYA UNIVERSITY: YOSHIO NISHIMOTO, STEPHAN IRLE
     MOSCOW STATE UNIVERSITY: VLADIMIR MIRONOV


 PARALLEL VERSION RUNNING ON        4 PROCESSORS IN        1 NODES.

 EXECUTION OF GAMESS BEGUN Mon Dec  4 10:14:15 2023

            ECHO OF THE FIRST FEW INPUT CARDS -
 INPUT CARD> !Step 2: single point gmcpt calculation averaging 4 states                     
 INPUT CARD> !        for AsH3+ at AsH3 structure. The ROHF orbitals at                     
 INPUT CARD> !        the MP2 optimized structure is taken as the initial                   
 INPUT CARD> !        guess of orbitals in the $VEC group.                                  
 INPUT CARD> $system kdiag=3 mwords=250 memddi=8000 parall=.t. $end                         
 INPUT CARD> $contrl runtyp=energy ispher=1 $end                                            
 INPUT CARD> $contrl icut=9 itol=20 inttyp=rysquad qmttol=1.0d-05 nosym=1 $end              
 INPUT CARD> $scf    npunch=2 conv=1.0d-06 dirscf=.t. diis=.t. soscf=.f. ethrsh=10.0 $end   
 INPUT CARD> $contrl scftyp=mcscf  mult=2 maxit=200 icharg=1 mplevl=2 $end                  
 INPUT CARD> $guess  guess=moread norb=85 purify=.t. $end                                   
 INPUT CARD> $basis  gbasis=cct $end                                                        
 INPUT CARD> $mcscf  cistep=gmcci fullnr=.t. finci=mos                                      
 INPUT CARD>         acurcy=1.d-6 maxit=200 $end                                            
 INPUT CARD> $trans  dirtrf=.t. $end                                                        
 INPUT CARD> $mrmp   mrpt=gmcpt rdvecs=.f. $end                                             
 INPUT CARD> $gmcpt  nmofzc=5 nmodoc=9 nmoact=7 nelact=7 stsym(1)=A                         
 INPUT CARD>         reftyp=ormas nspace=1 mstart(1)=15 mine(1)=7 maxe(1)=7                 
 INPUT CARD>         kstate(1)=1,1,1,1                                                      
 INPUT CARD>         wstate(1)=1,1,1,1                                                      
 INPUT CARD>         iwgt=0 thrwgt=-1.0 krot=.f. kszdoe=.f. knospn=.f.                      
 INPUT CARD>         thrde=-1.0 edshft=0.02 $end                                            
 INPUT CARD> $statpt hssend=.t. $end                                                        
 INPUT CARD> $data                                                                          
 INPUT CARD> AsH3+ 3 states calculation at AsH3 structure.                                  
 INPUT CARD> C1                                                                             
 INPUT CARD>  AS         33.0   0.0000000000  -0.0000000000   0.0000000000                  
 INPUT CARD> H           1.0  -0.7325148768   1.2687529838   0.0000000000                   
 INPUT CARD> H           1.0  -0.7325148768  -1.2687529838   0.0000000000                   
 INPUT CARD> H           1.0   1.4650297535   0.0000000000   0.0000000000                   
 INPUT CARD> $end                                                                           
 INPUT CARD>--- OPTIMIZED ROHF     MO-S --- GENERATED AT Thu Nov 30 14:17:39 2023           
 INPUT CARD>E=    -2236.0689661144, E(NUC)=   36.3850013480                                 
 INPUT CARD> $VEC                                                                           
 INPUT CARD> 1  1-9.99999247E-01-8.13358154E-07 8.72443536E-06 6.72947160E-06-1.98975932E-05
 INPUT CARD> 1  2-6.75729435E-06 0.00000000E+00 0.00000000E+00 0.00000000E+00 0.00000000E+00
 INPUT CARD> 1  3 0.00000000E+00 0.00000000E+00 0.00000000E+00 0.00000000E+00 0.00000000E+00
 INPUT CARD> 1  4 0.00000000E+00 0.00000000E+00 0.00000000E+00 0.00000000E+00 0.00000000E+00
 INPUT CARD> 1  5 0.00000000E+00-2.01855693E-07-2.01855693E-07 4.03711386E-07 0.00000000E+00
 INPUT CARD> 1  6 0.00000000E+00 0.00000000E+00 1.79130146E-07 1.79130146E-07-3.58260292E-07
 INPUT CARD> 1  7 0.00000000E+00 0.00000000E+00 0.00000000E+00 8.51027283E-08 8.51027283E-08
 INPUT CARD> 1  8-1.70205457E-07 0.00000000E+00 0.00000000E+00 0.00000000E+00 2.07647683E-07
 INPUT CARD> 1  9 0.00000000E+00 0.00000000E+00 0.00000000E+00 0.00000000E+00-2.78588601E-07
 INPUT CARD> 1 10 0.00000000E+00 0.00000000E+00 0.00000000E+00 0.00000000E+00-2.07599188E-08
 INPUT CARD> 1 11-9.82972903E-07 1.17007733E-06 3.67148296E-08-6.35919502E-08 0.00000000E+00
 INPUT CARD> 1 12-1.15596195E-07 2.00218483E-07 0.00000000E+00-2.59784003E-08 1.48957066E-07
 INPUT CARD> 1 13-1.22978666E-07-1.74935467E-07 0.00000000E+00 0.00000000E+00-2.07599188E-08
 INPUT CARD> 1 14-9.82972903E-07 1.17007733E-06 3.67148296E-08 6.35919502E-08 0.00000000E+00
 INPUT CARD> 1 15-1.15596195E-07-2.00218483E-07 0.00000000E+00-2.59784003E-08 1.48957066E-07
 INPUT CARD> 1 16-1.22978666E-07 1.74935467E-07 0.00000000E+00 0.00000000E+00-2.07599188E-08
 INPUT CARD> 1 17-9.82972903E-07 1.17007733E-06-7.34296591E-08 0.00000000E+00 0.00000000E+00
  250000000 WORDS OF MEMORY AVAILABLE

     BASIS OPTIONS
     -------------
     GBASIS=CCT          IGAUSS=       0      POLAR=NONE    
     NDFUNC=       0     NFFUNC=       0     DIFFSP=       F
     NPFUNC=       0      DIFFS=       F     BASNAM=        


     RUN TITLE
     ---------
  AsH3+ 3 states calculation at AsH3 structure.                                  

 THE POINT GROUP OF THE MOLECULE IS C1      
 THE ORDER OF THE PRINCIPAL AXIS IS     0

 ATOM      ATOMIC                      COORDINATES (BOHR)
           CHARGE         X                   Y                   Z
 AS         33.0     0.0000000000       -0.0000000000        0.0000000000
 H           1.0    -1.3842523991        2.3975954855        0.0000000000
 H           1.0    -1.3842523991       -2.3975954855        0.0000000000
 H           1.0     2.7685047980        0.0000000000        0.0000000000

          INTERNUCLEAR DISTANCES (ANGS.)
          ------------------------------

                1 AS         2 H          3 H          4 H     

   1 AS      0.0000000    1.4650298 *  1.4650298 *  1.4650298 *
   2 H       1.4650298 *  0.0000000    2.5375060 *  2.5375060 *
   3 H       1.4650298 *  2.5375060 *  0.0000000    2.5375060 *
   4 H       1.4650298 *  2.5375060 *  2.5375060 *  0.0000000  

  * ... LESS THAN  3.000


     ATOMIC BASIS SET
     ----------------
 THE CONTRACTED PRIMITIVE FUNCTIONS HAVE BEEN UNNORMALIZED
 THE CONTRACTED BASIS FUNCTIONS ARE NOW NORMALIZED TO UNITY

  SHELL TYPE  PRIMITIVE        EXPONENT          CONTRACTION COEFFICIENT(S)

 AS        

      1   S       1       8482340.0000000    0.000006800003
      1   S       2       1270151.0000000    0.000052800023
      1   S       3        289057.0000000    0.000277400122
      1   S       4         81879.8500000    0.001170200514
      1   S       5         26716.5600000    0.004242101862
      1   S       6          9647.5840000    0.013655705995
      1   S       7          3764.1190000    0.039339917271
      1   S       8          1561.5660000    0.099929243872
      1   S       9           680.8147000    0.212155593142
      1   S      10           309.2412000    0.336386747683
      1   S      11           145.2574000    0.315512638518
      1   S      12            69.7390500    0.118131251863
      1   S      13            31.7703200    0.008007603516
      1   S      14            15.3917600    0.000329300145
      1   S      15             7.3415260   -0.000152300067
      1   S      16             3.3237160    0.000024700011
      1   S      17             1.4858670   -0.000036600016
      1   S      18             0.2115000   -0.000009400004

      2   S      19       8482340.0000000   -0.000002099844
      2   S      20       1270151.0000000   -0.000016498771
      2   S      21        289057.0000000   -0.000086593551
      2   S      22         81879.8500000   -0.000365272798
      2   S      23         26716.5600000   -0.001330800894
      2   S      24          9647.5840000   -0.004308979105
      2   S      25          3764.1190000   -0.012696354487
      2   S      26          1561.5660000   -0.033613496762
      2   S      27           680.8147000   -0.078941121158
      2   S      28           309.2412000   -0.151434522485
      2   S      29           145.2574000   -0.204186194004
      2   S      30            69.7390500   -0.055732549529
      2   S      31            31.7703200    0.418729516699
      2   S      32            15.3917600    0.575833316987
      2   S      33             7.3415260    0.169671564351
      2   S      34             3.3237160    0.006065748276
      2   S      35             1.4858670    0.001760368903
      2   S      36             0.2115000    0.000231582754

      3   S      37       8482340.0000000    0.000000818623
      3   S      38       1270151.0000000    0.000006548987
      3   S      39        289057.0000000    0.000034484509
      3   S      40         81879.8500000    0.000145612630
      3   S      41         26716.5600000    0.000530877249
      3   S      42          9647.5840000    0.001719313712
      3   S      43          3764.1190000    0.005083344082
      3   S      44          1561.5660000    0.013519053150
      3   S      45           680.8147000    0.032188884481
      3   S      46           309.2412000    0.063284292808
      3   S      47           145.2574000    0.090004159277
      3   S      48            69.7390500    0.026354351138
      3   S      49            31.7703200   -0.251262012099
      3   S      50            15.3917600   -0.520907644337
      3   S      51             7.3415260   -0.056868639208
      3   S      52             3.3237160    0.724870110338
      3   S      53             1.4858670    0.535280112340
      3   S      54             0.2115000   -0.011376408833

      4   S      55       8482340.0000000   -0.000000322182
      4   S      56       1270151.0000000   -0.000002899636
      4   S      57        289057.0000000   -0.000014981451
      4   S      58         81879.8500000   -0.000063147623
      4   S      59         26716.5600000   -0.000230198862
      4   S      60          9647.5840000   -0.000745689664
      4   S      61          3764.1190000   -0.002204850817
      4   S      62          1561.5660000   -0.005870151514
      4   S      63           680.8147000   -0.013996219653
      4   S      64           309.2412000   -0.027636106289
      4   S      65           145.2574000   -0.039550065282
      4   S      66            69.7390500   -0.011844045553
      4   S      67            31.7703200    0.115999445484
      4   S      68            15.3917600    0.253920137348
      4   S      69             7.3415260    0.022886825089
      4   S      70             3.3237160   -0.459365613804
      4   S      71             1.4858670   -0.625893951029
      4   S      72             0.2115000    1.046339525967

      5   S      73             0.4210860    1.000000000000

      6   S      74             0.0889740    1.000000000000

      7   P      75          7423.8610000    0.000459888095
      7   P      76          1759.5170000    0.003982196918
      7   P      77           570.2292000    0.021463244409
      7   P      78           216.5800000    0.082459565479
      7   P      79            90.7342500    0.223884404601
      7   P      80            40.3087900    0.392060251256
      7   P      81            18.5555000    0.354214630915
      7   P      82             8.3965430    0.104861385592
      7   P      83             3.7673670    0.003366312861
      7   P      84             1.6297010    0.001849452126
      7   P      85             0.2225030    0.000229694054

      8   P      86          7423.8610000   -0.000183933273
      8   P      87          1759.5170000   -0.001603623364
      8   P      88           570.2292000   -0.008714684634
      8   P      89           216.5800000   -0.034482567311
      8   P      90            90.7342500   -0.097731519242
      8   P      91            40.3087900   -0.183894927481
      8   P      92            18.5555000   -0.150374370146
      8   P      93             8.3965430    0.201569541112
      8   P      94             3.7673670    0.550783570924
      8   P      95             1.6297010    0.395483295494
      8   P      96             0.2225030   -0.005537068181

      9   P      97          7423.8610000    0.000067575484
      9   P      98          1759.5170000    0.000590735054
      9   P      99           570.2292000    0.003209920148
      9   P     100           216.5800000    0.012757201241
      9   P     101            90.7342500    0.036296841475
      9   P     102            40.3087900    0.069067055648
      9   P     103            18.5555000    0.055084858236
      9   P     104             8.3965430   -0.092951347783
      9   P     105             3.7673670   -0.256062306212
      9   P     106             1.6297010   -0.211535143443
      9   P     107             0.2225030    0.991664800915

     10   P     108             0.5682630    1.000000000000

     11   P     109             0.0804050    1.000000000000

     12   D     110           321.0196000    0.001738948853
     12   D     111            96.2493100    0.014620594557
     12   D     112            36.6449600    0.064875906626
     12   D     113            15.4939600    0.184323725081
     12   D     114             6.8911380    0.331417629149
     12   D     115             3.0548310    0.389664464481
     12   D     116             1.3142410    0.283997092847

     13   D     117             0.5134300    1.000000000000

     14   D     118             0.1877000    1.000000000000

     15   F     119             0.4158000    1.000000000000

 H         

     16   S     120            33.8700000    0.025494863235
     16   S     121             5.0950000    0.190362765893
     16   S     122             1.1590000    0.852162022245

     17   S     123             0.3258000    1.000000000000

     18   S     124             0.1027000    1.000000000000

     19   P     125             1.4070000    1.000000000000

     20   P     126             0.3880000    1.000000000000

     21   D     127             1.0570000    1.000000000000

 H         

     22   S     128            33.8700000    0.025494863235
     22   S     129             5.0950000    0.190362765893
     22   S     130             1.1590000    0.852162022245

     23   S     131             0.3258000    1.000000000000

     24   S     132             0.1027000    1.000000000000

     25   P     133             1.4070000    1.000000000000

     26   P     134             0.3880000    1.000000000000

     27   D     135             1.0570000    1.000000000000

 H         

     28   S     136            33.8700000    0.025494863235
     28   S     137             5.0950000    0.190362765893
     28   S     138             1.1590000    0.852162022245

     29   S     139             0.3258000    1.000000000000

     30   S     140             0.1027000    1.000000000000

     31   P     141             1.4070000    1.000000000000

     32   P     142             0.3880000    1.000000000000

     33   D     143             1.0570000    1.000000000000

 TOTAL NUMBER OF BASIS SET SHELLS             =   33
 NUMBER OF CARTESIAN GAUSSIAN BASIS FUNCTIONS =   94
 NOTE: THIS RUN WILL RESTRICT THE MO VARIATION SPACE TO SPHERICAL HARMONICS.
 THE NUMBER OF ORBITALS KEPT IN THE VARIATIONAL SPACE WILL BE PRINTED LATER.
 NUMBER OF ELECTRONS                          =   35
 CHARGE OF MOLECULE                           =    1
 SPIN MULTIPLICITY                            =    2
 NUMBER OF OCCUPIED ORBITALS (ALPHA)          =   18
 NUMBER OF OCCUPIED ORBITALS (BETA )          =   17
 TOTAL NUMBER OF ATOMS                        =    4
 THE NUCLEAR REPULSION ENERGY IS       36.3850013485

     $CONTRL OPTIONS
     ---------------
 SCFTYP=MCSCF        RUNTYP=ENERGY       EXETYP=RUN     
 MPLEVL=       2     CITYP =NONE         CCTYP =NONE         VBTYP =NONE    
 DFTTYP=NONE         TDDFT =NONE    
 MULT  =       2     ICHARG=       1     NZVAR =       0     COORD =UNIQUE  
 PP    =NONE         RELWFN=NONE         LOCAL =NONE         NUMGRD=       F
 ISPHER=       1     NOSYM =       1     MAXIT =     200     UNITS =ANGS    
 PLTORB=       F     MOLPLT=       F     AIMPAC=       F     FRIEND=        
 NPRINT=       7     IREST =       0     GEOM  =INPUT   
 NORMF =       0     NORMP =       0     ITOL  =      20     ICUT  =       9
 INTTYP=RYSQUAD      GRDTYP=BEST         QMTTOL= 1.0E-05

     $SYSTEM OPTIONS
     ---------------
  REPLICATED MEMORY=   250000000 WORDS (ON EVERY NODE).
 DISTRIBUTED MEMDDI=        8000 MILLION WORDS IN AGGREGATE,
 MEMDDI DISTRIBUTED OVER   4 PROCESSORS IS  2000000000 WORDS/PROCESSOR.
 TOTAL MEMORY REQUESTED ON EACH PROCESSOR=  2250000000 WORDS.
 TIMLIM=      525600.00 MINUTES, OR     365.0 DAYS.
 PARALL= T  BALTYP=  DLB     KDIAG=    3  COREFL= F
 MXSEQ2=     300 MXSEQ3=     150  mem10=         0

          ----------------
          PROPERTIES INPUT
          ----------------

     MOMENTS            FIELD           POTENTIAL          DENSITY
 IEMOM =       1   IEFLD =       0   IEPOT =       0   IEDEN =       0
 WHERE =COMASS     WHERE =NUCLEI     WHERE =NUCLEI     WHERE =NUCLEI  
 OUTPUT=BOTH       OUTPUT=BOTH       OUTPUT=BOTH       OUTPUT=BOTH    
 IEMINT=       0   IEFINT=       0                     IEDINT=       0
                                                       MORB  =       0

     -------------------------------
     INTEGRAL TRANSFORMATION OPTIONS
     -------------------------------
     NWORD  =            0
     CUTOFF = 1.0E-09     MPTRAN =       0
     DIRTRF =       T     AOINTS =DUP     

          ----------------------
          MCSCF INPUT PARAMETERS
          ----------------------
 CONVERGER SELECTION: FOCAS = F  SOSCF = F  FULLNR = T  QUD = F  JACOBI = F
 SECULAR EQUATION METHOD CISTEP = GMCCI   
 --- GENERAL INPUT OPTIONS:
 MAXIT =     200  MICIT =       1  ACURCY= 1.000E-06
 DAMP  =   0.000  CANONC=       T  ENGTOL= 1.000E-10
 EKT   =       F  NPUNCH=       2  NWORD =         0
 REGENERATE CI AFTER CONVERGENCE = NONE    
 DIABATIZATION AFTER CONVERGENCE =        F
 --- INPUT FOR FULLNR CONVERGER:
 METHOD=DM2       FORS  =       F  DROPC =       T
 LINSER=       F  FCORE =       F  NORB  =      94

          ----------------------
          INTEGRAL INPUT OPTIONS
          ----------------------
 NOPK  =       1 NORDER=       0 SCHWRZ=       T

 ------------------------------------------
 MULTIREFERENCE PERTURBATION THEORY CONTROL
 ------------------------------------------
 MRPT=GMCPT    READ CONVERGED MCSCF VECTORS= F


     ------------------------------------------
     THE POINT GROUP IS C1 , NAXIS= 1, ORDER= 1
     ------------------------------------------

 -- VARIATIONAL SPACE WILL BE RESTRICTED TO PURE SPHERICAL HARMONICS ONLY --
 AFTER EXCLUDING CONTAMINANT COMBINATIONS FROM THE CARTESIAN GAUSSIAN BASIS
 SET, THE NUMBER OF SPHERICAL HARMONICS KEPT IN THE VARIATION SPACE IS   85

     DIMENSIONS OF THE SYMMETRY SUBSPACES ARE
 A   =   85

 ..... DONE SETTING UP THE RUN .....
 CPU     0: STEP CPU TIME=     0.14 TOTAL CPU TIME=          0.1 (      0.0 MIN)
 TOTAL WALL CLOCK TIME=          0.2 SECONDS, CPU UTILIZATION IS    58.33%

          ********************
          1 ELECTRON INTEGRALS
          ********************
 TIME TO DO   DIPOLE INTEGRALS=      0.02
 ...... END OF ONE-ELECTRON INTEGRALS ......
 CPU     0: STEP CPU TIME=     0.02 TOTAL CPU TIME=          0.2 (      0.0 MIN)
 TOTAL WALL CLOCK TIME=          0.2 SECONDS, CPU UTILIZATION IS    64.00%

          -------------
          GUESS OPTIONS
          -------------
          GUESS =MOREAD            NORB  =      85          NORDER=       0
          MIX   =       F          PRTMO =       F          PUNMO =       F
          TOLZ  = 1.0E-08          TOLE  = 1.0E-05
          SYMDEN=       F          PURIFY=       T

 INITIAL GUESS ORBITALS GENERATED BY MOREAD   ROUTINE.

 STATISTICS FOR GENERATION OF SYMMETRY ORBITAL -Q- MATRIX
 NUMBER OF CARTESIAN ATOMIC ORBITALS=         94
 NUMBER OF SPHERICAL CONTAMINANTS DROPPED=     9
 NUMBER OF LINEARLY DEPENDENT MOS DROPPED=     0
 TOTAL NUMBER OF MOS IN VARIATION SPACE=      85
 ORBITAL PURIFICATION WILL OCCUR

 SYMMETRIES FOR INITIAL GUESS ORBITALS FOLLOW.   BOTH SET(S).
    18 ORBITALS ARE OCCUPIED (   14 CORE ORBITALS).
     1=A        2=A        3=A        4=A        5=A        6=A        7=A   
     8=A        9=A       10=A       11=A       12=A       13=A       14=A   
    15=A       16=A       17=A       18=A       19=A       20=A       21=A   
    22=A       23=A       24=A       25=A       26=A       27=A       28=A   
    29=A       30=A       31=A       32=A       33=A       34=A       35=A   
    36=A       37=A       38=A       39=A       40=A       41=A       42=A   
    43=A       44=A       45=A       46=A       47=A       48=A       49=A   
    50=A       51=A       52=A       53=A       54=A       55=A       56=A   
    57=A       58=A       59=A       60=A       61=A       62=A       63=A   
    64=A       65=A       66=A       67=A       68=A       69=A       70=A   
    71=A       72=A       73=A       74=A       75=A       76=A       77=A   
    78=A       79=A       80=A       81=A       82=A       83=A       84=A   
    85=A   
 ...... END OF INITIAL ORBITAL SELECTION ......
 CPU     0: STEP CPU TIME=     0.06 TOTAL CPU TIME=          0.2 (      0.0 MIN)
 TOTAL WALL CLOCK TIME=          0.3 SECONDS, CPU UTILIZATION IS    64.71%

                    ----------------------
                    AO INTEGRAL TECHNOLOGY
                    ----------------------
     S,P,L SHELL ROTATED AXIS INTEGRALS, REPROGRAMMED BY
        KAZUYA ISHIMURA (IMS) AND JOSE SIERRA (SYNSTAR).
     S,P,D,L SHELL ROTATED AXIS INTEGRALS PROGRAMMED BY
        KAZUYA ISHIMURA (INSTITUTE FOR MOLECULAR SCIENCE).
     S,P,D,F,G SHELL TO TOTAL QUARTET ANGULAR MOMENTUM SUM 5,
        ERIC PROGRAM BY GRAHAM FLETCHER (ELORET AND NASA ADVANCED
        SUPERCOMPUTING DIVISION, AMES RESEARCH CENTER).
     S,P,D,F,G,L SHELL GENERAL RYS QUADRATURE PROGRAMMED BY
        MICHEL DUPUIS (PACIFIC NORTHWEST NATIONAL LABORATORY).

          --------------------
          2 ELECTRON INTEGRALS
          --------------------

 DIRECT SCF METHOD SKIPS INTEGRAL STORAGE ON DISK.
 DIRECT TRANSFORMATION SKIPS AO INTEGRAL STORAGE ON DISK.
  ...... END OF TWO-ELECTRON INTEGRALS .....
 STEP CPU TIME =     0.02 TOTAL CPU TIME =          0.2 (      0.0 MIN)
 TOTAL WALL CLOCK TIME=          0.4 SECONDS, CPU UTILIZATION IS    66.67%
 DDI: Creating Array [0] - 8836 x 231 = 2041116 words.
 DDI: Creating Array [1] - 64 x 4851 = 310464 words.
 DDI: Creating Array [2] - 231 x 231 = 53361 words.
 DDI: Creating Array [3] - 4465 x 231 = 1031415 words.

          -----------------
          MCSCF CALCULATION
          -----------------

 ----- NUCLEAR ENERGY ----- =        36.3850013485

     -------------------------------------------------
     GMC-PT/GMC-QDPT or general MCSCF input parameters
     -------------------------------------------------
 # of frozen core orbs. =         5 ->         0
 # of doubly occ. orbs. =         9
 # of active      orbs. =         7
 # of virtual     orbs. =        64
 # of active electrons  =         7
 # of states in CI      =         4
 Highest state in CI    =         4
 kstate =  1 1 1 1
 avecoe =  0.250 0.250 0.250 0.250
 State symmetry           = A           
 Assigned symmetry number = 1

 <<<Act. MO sym.: 1111111

 <<<Division of 1-ext.:  0 0 0 0
 <<<Division of 2-ext.:  0 1 2 3

 *** Reference space

 Reference type: ORMAS (= Occupation restricted multiple active space)
 # of orbitals          =  7
 # of minimum electrons =  7
 # of maximum electrons =  7
 State symmetry    =    1 (input)
 2*Sz              =    1 (input)
 Spin multiplicity =    2 (input)
 Dimension of reference space =      1225  (from      3432 walks)

 Dimension of reference space =      1225  (from      1225 walks)

 <<<Ionized spaces for Ref-CI:
      0:         1225 /   -1-0:         1960 /  0-1-0:         2891

 EVALUATING EXCHANGE INTEGRALS FOR DIRECT INTEGRAL TRANSFORMATION
 SCHWARZ INEQUALITY OVERHEAD:      4465 INTEGRALS, T=        0.09

     --------------------------------------------
     PARTIAL TWO ELECTRON INTEGRAL TRANSFORMATION
     --------------------------------------------

 NUMBER OF CORE MOLECULAR ORBITALS     =   14
 NUMBER OF OCCUPIED MOLECULAR ORBITALS =   21
 TOTAL NUMBER OF MOLECULAR ORBITALS    =   85
 TOTAL NUMBER OF ATOMIC ORBITALS       =   94
 THRESHOLD FOR KEEPING TRANSFORMED 2E- INTEGRALS = 1.000E-09

 -------------------------------     ------------------------------
 DISTRIBUTED DATA TRANSFORMATION     PROGRAM WRITTEN BY G. FLETCHER
 -------------------------------     ------------------------------

 THE DISTRIBUTED MEMORY REQUIRED FOR THIS STEP IS MEMDDI=         4 MWORDS
 CREATING DISTRIBUTED STORAGE FOR [VIR OCC|VIR OCC] INTEGRALS
 CREATING DISTRIBUTED STORAGE FOR [VIR OCC|OCC OCC] INTEGRALS
 CREATING DISTRIBUTED STORAGE FOR [OCC OCC|OCC OCC] INTEGRALS
 CREATING DISTRIBUTED STORAGE FOR [VIR VIR|OCC OCC] INTEGRALS
 FOR    4 PROCESSORS, THE REPLICATED MEMORY NEEDED IS      541469 WORDS.
 SCHWARZ INEQUALITY OVERHEAD:      4465 INTEGRALS, T=        0.09

      DIRECT 4-INDEX TRANSFORMATION 
      SCHWARZ INEQUALITY TEST SKIPPED       1074 INTEGRAL BLOCKS
 ----- FROZEN CORE ENERGY =     -2258.5556218755
 ... END OF INTEGRAL TRANSFORMATION ...
 CPU     0: STEP CPU TIME=     7.45 TOTAL CPU TIME=          7.7 (      0.1 MIN)
 TOTAL WALL CLOCK TIME=          8.0 SECONDS, CPU UTILIZATION IS    96.61%

     --------------------------------     -----------------------------
     MCHF NEWTON-RAPHSON OPTIMIZATION     CODE WRITTEN BY MICHEL DUPUIS
     --------------------------------     -----------------------------
     PARALLEL VERSION WRITTEN BY G. FLETCHER (ELORET)
     NASA ADVANCED SUPERCOMPUTING DIVISION, AMES RESEARCH CENTER

 NUMBER OF INDEPENDENT ORBITAL ROTATION PARAMETERS =   281
 ..... DONE SOLVING NEWTON-RAPHSON EQUATIONS .....
 CPU     0: STEP CPU TIME=     0.56 TOTAL CPU TIME=          8.2 (      0.1 MIN)
 TOTAL WALL CLOCK TIME=          9.0 SECONDS, CPU UTILIZATION IS    91.26%
 ..... DONE WITH NTN-RPH ORBITAL ROTATIONS ..... 
 CPU     0: STEP CPU TIME=     0.00 TOTAL CPU TIME=          8.2 (      0.1 MIN)
 TOTAL WALL CLOCK TIME=          9.0 SECONDS, CPU UTILIZATION IS    91.16%
 MAXIMUM MEMORY USED BY NTN-RPH CODE WAS    197978 WORDS.

 ITER     TOTAL ENERGY      DEL(E)  LAGRANGIAN ASYMMETRY   SQCDF  MICIT   DAMP
   1    -2235.447860622 -0.447860622  0.075218   23   17 1.886E-01  1   0.0000
   2    -2235.494852925 -0.046992303  0.015555   25   18 2.387E-01  1   0.0000
   3    -2235.512295450 -0.017442525  0.005764   29   21 7.021E-02  1   0.0046
   4    -2235.516323844 -0.004028394  0.001674   32   20 9.892E-03  1   0.0000
   5    -2235.516878147 -0.000554303  0.000673   32   20 1.338E-03  1   0.0000
   6    -2235.516956522 -0.000078374  0.000308   32   16 2.061E-04  1   0.0000
   7    -2235.516968552 -0.000012030  0.000150   33   17 3.289E-05  1   0.0000
   8    -2235.516970463 -0.000001911  0.000065   32   16 5.282E-06  1   0.0000
   9    -2235.516970770 -0.000000307  0.000027   32   16 8.492E-07  1   0.0000
  10    -2235.516970819 -0.000000049  0.000011   32   16 1.366E-07  1   0.0000
  11    -2235.516970827 -0.000000008  0.000004   32   16 2.199E-08  1   0.0000
  12    -2235.516970828 -0.000000001  0.000002   32   16 3.528E-09  1   0.0000
  13    -2235.516970828 -0.000000000  0.000001   32   16 5.731E-10  1   0.0000

          --------------------
          LAGRANGIAN CONVERGED
          --------------------

 FINAL MCSCF ENERGY IS    -2235.5169708284 AFTER  13 ITERATIONS

 -MCCI- BASED ON OPTIMIZED ORBITALS
 ----------------------------------

 PLEASE NOTE: IF THE ACTIVE ORBITALS ARE CANONICALIZED BELOW,
 THE FOLLOWING CI EXPANSION COEFFICIENTS AND THE DENSITY DO NOT
 CORRESPOND TO THE PRINTED ORBITALS.  THE PRINTED EXPANSIONS MATCH
 THE ORBITALS USED DURING THE LAST ITERATION.  IF YOU WISH TO SEE
 CI EXPANSIONS BASED ON THE CANONICAL (OR NATURAL) ORBITALS, YOU
 MUST RUN A CI CALCULATION WITH THAT ORBITAL CHOICE READ IN $VEC.

 Averaged energy =   -2235.516970828

 State #    1  Energy =   -2235.693429988  S =  0.500

      Det      Coef    Occupancy (Ignoring core)
      ---      ----    --------- --------- -----
        1    0.971761  11110001110000
        5   -0.081560  01111001110000
        8    0.058035  10110101110000
       17   -0.058035  11010011110000
      107   -0.073178  11101000111000
      143    0.060681  11011001100100
      179    0.060681  10111001010100
      393    0.057410  10110101010010
      717    0.057410  11010011100001

 State #    2  Energy =   -2235.481694995  S =  0.500

      Det      Coef    Occupancy (Ignoring core)
      ---      ----    --------- --------- -----
        2    0.941870  11101001110000
      106   -0.174499  11110000111000
      156    0.079664  11100011100100
      181   -0.079664  11100101010100
      212    0.107028  11101000110100
      387   -0.107006  11101001010010
      396    0.057184  10101101010010
      702    0.107006  11101001100001
      720    0.057184  11001011100001

 State #    3  Energy =   -2235.446379165  S =  0.500

      Det      Coef    Occupancy (Ignoring core)
      ---      ----    --------- --------- -----
       16   -0.110106  11100011110000
       36    0.902594  11110001101000
       39    0.097529  10111001101000
       52    0.059512  11010011101000
       71   -0.298142  11110001011000
       73    0.097529  11011001011000
      108    0.053450  11011000111000
      142   -0.113552  11101001100100
      249    0.066214  10111001001100
      281    0.058332  11110000101100
      456   -0.053419  11110001001010

 State #    4  Energy =   -2235.446379165  S =  0.500

      Det      Coef    Occupancy (Ignoring core)
      ---      ----    --------- --------- -----
        6    0.110106  11100101110000
       36    0.298142  11110001101000
       38    0.097529  11011001101000
       71    0.902594  11110001011000
       74   -0.097529  10111001011000
       78   -0.059512  10110101011000
      109    0.053450  10111000111000
      177   -0.113552  11101001010100
      248   -0.066214  11011001001100
      316    0.058332  11110000011100
      806   -0.053419  11110001001001

 DENSITY MATRIX OVER ACTIVE MO-S

             1           2           3           4           5

    1    1.9683219
    2    0.0000000   1.7188197
    3    0.0000000  -0.0000000   1.7188197
    4    0.0000000   0.0000000   0.0000000   1.2381312
    5    0.0774964  -0.0000000   0.0000000   0.0000000   0.2940827
    6   -0.0000000   0.0508620  -0.0000000  -0.0000000  -0.0000000
    7    0.0000000   0.0000000   0.0508620   0.0000000   0.0000000

             6           7

    6    0.0309124
    7   -0.0000000   0.0309124

 FORMING THE "STANDARD FOCK OPERATOR" IN DIRECT AO INTEGRAL MODE...
 ONLY THE   14 CORE AND   64 VIRTUAL ORBITALS WILL BE CANONICALIZED

          ----------------------
          MCSCF NATURAL ORBITALS
          ----------------------

                      1          2          3          4          5
                 -432.8954   -56.6209   -50.4654   -50.4653   -50.4653
                     A          A          A          A          A   
    1  AS 1  S    0.999999   0.000003   0.000000   0.000000   0.000000
    2  AS 1  S    0.000001   1.000103   0.000000  -0.000000   0.000000
    3  AS 1  S   -0.000004   0.000135   0.000000  -0.000000   0.000000
    4  AS 1  S   -0.000005   0.000143   0.000000   0.000000   0.000000
    5  AS 1  S    0.000016  -0.000426   0.000000   0.000000   0.000000
    6  AS 1  S    0.000005  -0.000140   0.000000   0.000000   0.000000
    7  AS 1  X   -0.000000   0.000000   0.000000   0.997862  -0.065742
    8  AS 1  Y   -0.000000  -0.000000   0.000000   0.065742   0.997862
    9  AS 1  Z   -0.000000  -0.000000   1.000026   0.000000   0.000000
   10  AS 1  X    0.000000  -0.000000   0.000000  -0.000003   0.000000
   11  AS 1  Y   -0.000000  -0.000000   0.000000  -0.000000  -0.000003
   12  AS 1  Z   -0.000000  -0.000000   0.000001   0.000000   0.000000
   13  AS 1  X    0.000000  -0.000000   0.000000  -0.000088   0.000006
   14  AS 1  Y    0.000000  -0.000000   0.000000  -0.000006  -0.000088
   15  AS 1  Z   -0.000000  -0.000000  -0.000002   0.000000   0.000000
   16  AS 1  X   -0.000000   0.000000   0.000000  -0.000499   0.000033
   17  AS 1  Y   -0.000000  -0.000000   0.000000  -0.000033  -0.000499
   18  AS 1  Z   -0.000000  -0.000000  -0.000447   0.000000   0.000000
   19  AS 1  X   -0.000000  -0.000000   0.000000  -0.000090   0.000006
   20  AS 1  Y   -0.000000  -0.000000   0.000000  -0.000006  -0.000090
   21  AS 1  Z   -0.000000  -0.000000  -0.000069   0.000000   0.000000
   22  AS 1 XX    0.000000  -0.000001   0.000000   0.000002  -0.000000
   23  AS 1 YY    0.000000  -0.000001   0.000000  -0.000002   0.000000
   24  AS 1 ZZ   -0.000000   0.000001   0.000000  -0.000000   0.000000
   25  AS 1 XY   -0.000000  -0.000000   0.000000  -0.000000  -0.000002
   26  AS 1 XZ   -0.000000  -0.000000   0.000000   0.000000   0.000000
   27  AS 1 YZ   -0.000000  -0.000000   0.000000   0.000000   0.000000
   28  AS 1 XX    0.000000  -0.000002   0.000000  -0.000056   0.000004
   29  AS 1 YY    0.000000  -0.000002   0.000000   0.000056  -0.000004
   30  AS 1 ZZ   -0.000000   0.000004   0.000000   0.000000   0.000000
   31  AS 1 XY   -0.000000  -0.000000   0.000000   0.000004   0.000064
   32  AS 1 XZ   -0.000000  -0.000000   0.000000   0.000000   0.000000
   33  AS 1 YZ   -0.000000  -0.000000   0.000000   0.000000   0.000000
   34  AS 1 XX    0.000000  -0.000002   0.000000  -0.000016   0.000001
   35  AS 1 YY    0.000000  -0.000002   0.000000   0.000016  -0.000001
   36  AS 1 ZZ   -0.000000   0.000004   0.000000  -0.000000   0.000000
   37  AS 1 XY   -0.000000   0.000000   0.000000   0.000001   0.000018
   38  AS 1 XZ   -0.000000  -0.000000   0.000000   0.000000   0.000000
   39  AS 1 YZ   -0.000000  -0.000000   0.000000   0.000000   0.000000
   40  AS 1 XXX   0.000000  -0.000006   0.000000  -0.000013   0.000001
   41  AS 1 YYY  -0.000000  -0.000000   0.000000  -0.000001  -0.000013
   42  AS 1 ZZZ  -0.000000  -0.000000  -0.000000   0.000000   0.000000
   43  AS 1 XXY  -0.000000  -0.000000   0.000000  -0.000000  -0.000006
   44  AS 1 XXZ  -0.000000  -0.000000   0.000000   0.000000   0.000000
   45  AS 1 YYX  -0.000000   0.000008   0.000000  -0.000006   0.000000
   46  AS 1 YYZ  -0.000000  -0.000000   0.000000   0.000000   0.000000
   47  AS 1 ZZX  -0.000000   0.000000   0.000000   0.000024  -0.000002
   48  AS 1 ZZY  -0.000000  -0.000000   0.000000   0.000002   0.000024
   49  AS 1 XYZ  -0.000000  -0.000000   0.000000   0.000000   0.000000
   50  H  2  S   -0.000000   0.000006   0.000000   0.000006  -0.000013
   51  H  2  S   -0.000000   0.000011   0.000000  -0.000031   0.000063
   52  H  2  S   -0.000001   0.000029   0.000000  -0.000021   0.000042
   53  H  2  X   -0.000000   0.000002   0.000000  -0.000004   0.000007
   54  H  2  Y    0.000000  -0.000003   0.000000   0.000006  -0.000013
   55  H  2  Z   -0.000000  -0.000000   0.000001   0.000000   0.000000
   56  H  2  X   -0.000000   0.000004   0.000000  -0.000017   0.000031
   57  H  2  Y    0.000000  -0.000008   0.000000   0.000027  -0.000056
   58  H  2  Z   -0.000000  -0.000000  -0.000005   0.000000   0.000000
   59  H  2 XX    0.000000  -0.000001   0.000000   0.000005  -0.000003
   60  H  2 YY   -0.000000   0.000005   0.000000  -0.000014   0.000022
   61  H  2 ZZ    0.000000  -0.000004   0.000000   0.000010  -0.000020
   62  H  2 XY    0.000000  -0.000006   0.000000   0.000012  -0.000029
   63  H  2 XZ   -0.000000  -0.000000   0.000003   0.000000   0.000000
   64  H  2 YZ   -0.000000  -0.000000  -0.000005   0.000000   0.000000
   65  H  3  S   -0.000000   0.000006   0.000000   0.000008   0.000012
   66  H  3  S   -0.000000   0.000011   0.000000  -0.000039  -0.000058
   67  H  3  S   -0.000001   0.000029   0.000000  -0.000026  -0.000039
   68  H  3  X   -0.000000   0.000002   0.000000  -0.000005  -0.000007
   69  H  3  Y   -0.000000   0.000003   0.000000  -0.000008  -0.000012
   70  H  3  Z   -0.000000  -0.000000   0.000001   0.000000   0.000000
   71  H  3  X   -0.000000   0.000004   0.000000  -0.000021  -0.000029
   72  H  3  Y   -0.000000   0.000008   0.000000  -0.000034  -0.000052
   73  H  3  Z   -0.000000  -0.000000  -0.000005   0.000000   0.000000
   74  H  3 XX    0.000000  -0.000001   0.000000   0.000005   0.000002
   75  H  3 YY   -0.000000   0.000005   0.000000  -0.000017  -0.000020
   76  H  3 ZZ    0.000000  -0.000004   0.000000   0.000012   0.000018
   77  H  3 XY   -0.000000   0.000006   0.000000  -0.000016  -0.000027
   78  H  3 XZ   -0.000000  -0.000000   0.000003   0.000000   0.000000
   79  H  3 YZ   -0.000000  -0.000000   0.000005   0.000000   0.000000
   80  H  4  S   -0.000000   0.000006   0.000000  -0.000014   0.000001
   81  H  4  S   -0.000000   0.000011   0.000000   0.000070  -0.000005
   82  H  4  S   -0.000001   0.000029   0.000000   0.000047  -0.000003
   83  H  4  X    0.000000  -0.000004   0.000000  -0.000017   0.000001
   84  H  4  Y   -0.000000  -0.000000   0.000000  -0.000000  -0.000001
   85  H  4  Z   -0.000000  -0.000000   0.000001   0.000000   0.000000
   86  H  4  X    0.000000  -0.000009   0.000000  -0.000072   0.000005
   87  H  4  Y   -0.000000  -0.000000   0.000000  -0.000000  -0.000002
   88  H  4  Z   -0.000000  -0.000000  -0.000005   0.000000   0.000000
   89  H  4 XX   -0.000000   0.000008   0.000000   0.000042  -0.000003
   90  H  4 YY    0.000000  -0.000004   0.000000  -0.000020   0.000001
   91  H  4 ZZ    0.000000  -0.000004   0.000000  -0.000022   0.000001
   92  H  4 XY   -0.000000  -0.000000   0.000000  -0.000000  -0.000004
   93  H  4 XZ   -0.000000  -0.000000  -0.000006   0.000000   0.000000
   94  H  4 YZ   -0.000000  -0.000000   0.000000   0.000000   0.000000

                      6          7          8          9         10
                   -8.3450    -6.1998    -6.1998    -6.1964    -2.4338
                     A          A          A          A          A   
    1  AS 1  S   -0.000085  -0.000000  -0.000000   0.000000   0.000000
    2  AS 1  S   -0.000609  -0.000000  -0.000000   0.000000   0.000000
    3  AS 1  S    0.975257  -0.000000  -0.000000   0.000000  -0.000000
    4  AS 1  S   -0.001924  -0.000000  -0.000000   0.000000   0.000000
    5  AS 1  S    0.036270   0.000000   0.000000   0.000000   0.000000
    6  AS 1  S    0.004132   0.000000  -0.000000   0.000000   0.000000
    7  AS 1  X   -0.000000   0.000020  -0.000104   0.000000   0.000215
    8  AS 1  Y   -0.000000  -0.000104  -0.000020   0.000000   0.000025
    9  AS 1  Z   -0.000000  -0.000000   0.000000   0.000031   0.000000
   10  AS 1  X   -0.000000  -0.185030   0.956664   0.000000   0.001047
   11  AS 1  Y   -0.000000   0.956664   0.185030   0.000000   0.000121
   12  AS 1  Z   -0.000000  -0.000000   0.000000   0.975679   0.000000
   13  AS 1  X   -0.000000   0.000190  -0.000982   0.000000   0.004633
   14  AS 1  Y   -0.000000  -0.000982  -0.000190   0.000000   0.000535
   15  AS 1  Z   -0.000000  -0.000000   0.000000   0.000431   0.000000
   16  AS 1  X    0.000000  -0.009076   0.046926   0.000000  -0.001878
   17  AS 1  Y    0.000000   0.046926   0.009076   0.000000  -0.000217
   18  AS 1  Z   -0.000000  -0.000000   0.000000   0.046644   0.000000
   19  AS 1  X   -0.000000  -0.000393   0.002030   0.000000  -0.002545
   20  AS 1  Y   -0.000000   0.002030   0.000393   0.000000  -0.000294
   21  AS 1  Z   -0.000000  -0.000000   0.000000   0.001652   0.000000
   22  AS 1 XX    0.000324  -0.000115   0.000597   0.000000   0.831658
   23  AS 1 YY    0.000324   0.000115  -0.000597   0.000000  -0.831658
   24  AS 1 ZZ   -0.000647  -0.000000  -0.000000   0.000000  -0.000000
   25  AS 1 XY   -0.000000  -0.000689  -0.000133   0.000000  -0.110850
   26  AS 1 XZ   -0.000000  -0.000000   0.000000   0.000000   0.000000
   27  AS 1 YZ   -0.000000  -0.000000   0.000000   0.000000   0.000000
   28  AS 1 XX    0.000051   0.000063  -0.000325   0.000000   0.072816
   29  AS 1 YY    0.000051  -0.000063   0.000325   0.000000  -0.072816
   30  AS 1 ZZ   -0.000101  -0.000000   0.000000   0.000000  -0.000000
   31  AS 1 XY    0.000000   0.000375   0.000073   0.000000  -0.009706
   32  AS 1 XZ   -0.000000  -0.000000   0.000000   0.000000   0.000000
   33  AS 1 YZ   -0.000000  -0.000000   0.000000   0.000000   0.000000
   34  AS 1 XX   -0.000015   0.000041  -0.000210   0.000000   0.000448
   35  AS 1 YY   -0.000015  -0.000041   0.000210   0.000000  -0.000448
   36  AS 1 ZZ    0.000031  -0.000000   0.000000   0.000000   0.000000
   37  AS 1 XY    0.000000   0.000243   0.000047   0.000000  -0.000060
   38  AS 1 XZ   -0.000000  -0.000000   0.000000  -0.000000   0.000000
   39  AS 1 YZ   -0.000000  -0.000000   0.000000   0.000000   0.000000
   40  AS 1 XXX   0.000049  -0.000010   0.000052   0.000000   0.000438
   41  AS 1 YYY  -0.000000   0.000052   0.000010   0.000000   0.000051
   42  AS 1 ZZZ  -0.000000  -0.000000   0.000000  -0.000215   0.000000
   43  AS 1 XXY  -0.000000   0.000023   0.000005   0.000000   0.000023
   44  AS 1 XXZ  -0.000000  -0.000000   0.000000   0.000144   0.000000
   45  AS 1 YYX  -0.000066  -0.000005   0.000023   0.000000   0.000196
   46  AS 1 YYZ  -0.000000  -0.000000   0.000000   0.000144   0.000000
   47  AS 1 ZZX   0.000000   0.000018  -0.000094   0.000000  -0.000783
   48  AS 1 ZZY   0.000000  -0.000094  -0.000018   0.000000  -0.000090
   49  AS 1 XYZ  -0.000000  -0.000000   0.000000   0.000000   0.000000
   50  H  2  S    0.000002   0.000406  -0.000140   0.000000  -0.002200
   51  H  2  S    0.000333   0.001883  -0.000650   0.000000  -0.001059
   52  H  2  S   -0.000677  -0.000658   0.000227   0.000000  -0.000683
   53  H  2  X   -0.000004   0.000024   0.000014   0.000000  -0.000679
   54  H  2  Y    0.000006  -0.000026   0.000022   0.000000   0.000350
   55  H  2  Z   -0.000000  -0.000000   0.000000   0.000011   0.000000
   56  H  2  X    0.000006   0.000267   0.000006   0.000000  -0.000779
   57  H  2  Y   -0.000010  -0.000393   0.000193   0.000000  -0.000512
   58  H  2  Z   -0.000000  -0.000000   0.000000   0.000124   0.000000
   59  H  2 XX   -0.000004  -0.000051  -0.000011   0.000000  -0.000153
   60  H  2 YY    0.000025   0.000138  -0.000019   0.000000  -0.000039
   61  H  2 ZZ   -0.000021  -0.000087   0.000030   0.000000   0.000192
   62  H  2 XY   -0.000029  -0.000166   0.000076   0.000000   0.000459
   63  H  2 XZ   -0.000000  -0.000000   0.000000  -0.000018   0.000000
   64  H  2 YZ   -0.000000  -0.000000   0.000000   0.000030   0.000000
   65  H  3  S    0.000002  -0.000324  -0.000281   0.000000  -0.003299
   66  H  3  S    0.000333  -0.001504  -0.001305   0.000000  -0.001589
   67  H  3  S   -0.000677   0.000526   0.000456   0.000000  -0.001024
   68  H  3  X   -0.000004  -0.000028   0.000004   0.000000  -0.000795
   69  H  3  Y   -0.000006  -0.000016  -0.000030   0.000000  -0.000654
   70  H  3  Z   -0.000000  -0.000000   0.000000   0.000011   0.000000
   71  H  3  X    0.000006  -0.000250  -0.000094   0.000000  -0.000665
   72  H  3  Y    0.000010  -0.000293  -0.000325   0.000000   0.000476
   73  H  3  Z   -0.000000  -0.000000   0.000000   0.000124   0.000000
   74  H  3 XX   -0.000004   0.000051   0.000009   0.000000  -0.000095
   75  H  3 YY    0.000025  -0.000121  -0.000070   0.000000  -0.000192
   76  H  3 ZZ   -0.000021   0.000070   0.000060   0.000000   0.000287
   77  H  3 XY    0.000029  -0.000126  -0.000133   0.000000  -0.000599
   78  H  3 XZ   -0.000000  -0.000000   0.000000  -0.000018   0.000000
   79  H  3 YZ   -0.000000  -0.000000   0.000000  -0.000030   0.000000
   80  H  4  S    0.000002  -0.000082   0.000422   0.000000   0.005499
   81  H  4  S    0.000333  -0.000378   0.001956   0.000000   0.002648
   82  H  4  S   -0.000677   0.000132  -0.000683   0.000000   0.001706
   83  H  4  X    0.000007   0.000007  -0.000036   0.000000  -0.001606
   84  H  4  Y   -0.000000   0.000024   0.000005   0.000000  -0.000052
   85  H  4  Z   -0.000000  -0.000000   0.000000   0.000011   0.000000
   86  H  4  X   -0.000011   0.000095  -0.000492   0.000000   0.000133
   87  H  4  Y   -0.000000   0.000105   0.000020   0.000000  -0.000116
   88  H  4  Z   -0.000000  -0.000000   0.000000   0.000124   0.000000
   89  H  4 XX    0.000040  -0.000043   0.000224   0.000000   0.001029
   90  H  4 YY   -0.000018   0.000026  -0.000133   0.000000  -0.000550
   91  H  4 ZZ   -0.000021   0.000017  -0.000090   0.000000  -0.000479
   92  H  4 XY   -0.000000   0.000035   0.000007   0.000000   0.000036
   93  H  4 XZ   -0.000000  -0.000000   0.000000   0.000035   0.000000
   94  H  4 YZ   -0.000000  -0.000000   0.000000   0.000000   0.000000

                     11         12         13         14         15
                   -2.4338    -2.4296    -2.4287    -2.4287     1.9719
                     A          A          A          A          A   
    1  AS 1  S   -0.000000  -0.000096   0.000000   0.000000   0.000444
    2  AS 1  S   -0.000000  -0.000644   0.000000   0.000000   0.002665
    3  AS 1  S   -0.000000  -0.001509   0.000000   0.000000   0.004369
    4  AS 1  S   -0.000000  -0.003271   0.000000   0.000000   0.556862
    5  AS 1  S    0.000000   0.000596   0.000000   0.000000   0.235461
    6  AS 1  S   -0.000000   0.003473   0.000000   0.000000   0.130890
    7  AS 1  X    0.000025   0.000000   0.000000   0.000000   0.000000
    8  AS 1  Y   -0.000215   0.000000   0.000000   0.000000  -0.000000
    9  AS 1  Z   -0.000000   0.000000   0.000000   0.000000   0.000000
   10  AS 1  X    0.000121   0.000000   0.000000   0.000000   0.000000
   11  AS 1  Y   -0.001047   0.000000   0.000000   0.000000  -0.000000
   12  AS 1  Z   -0.000000   0.000000   0.000000   0.000000   0.000000
   13  AS 1  X    0.000535   0.000000   0.000000   0.000000   0.000000
   14  AS 1  Y   -0.004633   0.000000   0.000000   0.000000  -0.000000
   15  AS 1  Z   -0.000000   0.000000   0.000000   0.000000   0.000000
   16  AS 1  X   -0.000217   0.000000   0.000000   0.000000   0.000000
   17  AS 1  Y    0.001878   0.000000   0.000000   0.000000   0.000000
   18  AS 1  Z   -0.000000   0.000000  -0.000000   0.000000   0.000000
   19  AS 1  X   -0.000294  -0.000000   0.000000   0.000000   0.000000
   20  AS 1  Y    0.002545   0.000000   0.000000   0.000000   0.000000
   21  AS 1  Z   -0.000000   0.000000   0.000000   0.000000   0.000000
   22  AS 1 XX    0.095999  -0.484045   0.000000   0.000000  -0.014322
   23  AS 1 YY   -0.095999  -0.484045   0.000000   0.000000  -0.014322
   24  AS 1 ZZ   -0.000000   0.968089   0.000000   0.000000   0.028644
   25  AS 1 XY    0.960316  -0.000000   0.000000   0.000000   0.000000
   26  AS 1 XZ   -0.000000   0.000000   0.968290  -0.013123   0.000000
   27  AS 1 YZ   -0.000000   0.000000   0.013123   0.968290   0.000000
   28  AS 1 XX    0.008405  -0.041111   0.000000   0.000000   0.008456
   29  AS 1 YY   -0.008405  -0.041111   0.000000   0.000000   0.008456
   30  AS 1 ZZ   -0.000000   0.082222   0.000000   0.000000  -0.016912
   31  AS 1 XY    0.084081  -0.000000   0.000000   0.000000   0.000000
   32  AS 1 XZ   -0.000000   0.000000   0.082205  -0.001114   0.000000
   33  AS 1 YZ   -0.000000   0.000000   0.001114   0.082205   0.000000
   34  AS 1 XX    0.000052  -0.000672   0.000000   0.000000   0.004368
   35  AS 1 YY   -0.000052  -0.000672   0.000000   0.000000   0.004368
   36  AS 1 ZZ    0.000000   0.001344   0.000000   0.000000  -0.008735
   37  AS 1 XY    0.000518  -0.000000   0.000000   0.000000   0.000000
   38  AS 1 XZ   -0.000000   0.000000   0.000962  -0.000013   0.000000
   39  AS 1 YZ   -0.000000   0.000000   0.000013   0.000962   0.000000
   40  AS 1 XXX   0.000051  -0.001017   0.000000   0.000000   0.013469
   41  AS 1 YYY  -0.000438   0.000000   0.000000   0.000000  -0.000000
   42  AS 1 ZZZ  -0.000000   0.000000  -0.000000   0.000000   0.000000
   43  AS 1 XXY  -0.000196   0.000000   0.000000   0.000000  -0.000000
   44  AS 1 XXZ  -0.000000   0.000000   0.000236  -0.000003   0.000000
   45  AS 1 YYX   0.000023   0.001364   0.000000   0.000000  -0.018071
   46  AS 1 YYZ  -0.000000   0.000000  -0.000236   0.000003   0.000000
   47  AS 1 ZZX  -0.000090   0.000000   0.000000   0.000000  -0.000000
   48  AS 1 ZZY   0.000783   0.000000   0.000000   0.000000   0.000000
   49  AS 1 XYZ  -0.000000   0.000000  -0.000004  -0.000273   0.000000
   50  H  2  S   -0.005080  -0.002814   0.000000   0.000000   0.074526
   51  H  2  S   -0.002446  -0.000901   0.000000   0.000000   0.107613
   52  H  2  S   -0.001576  -0.000355   0.000000   0.000000   0.010136
   53  H  2  X   -0.000587  -0.000444   0.000000   0.000000   0.003494
   54  H  2  Y    0.001374   0.000769   0.000000   0.000000  -0.006051
   55  H  2  Z   -0.000000   0.000000  -0.000217   0.000387   0.000000
   56  H  2  X    0.000411   0.000064   0.000000   0.000000   0.006363
   57  H  2  Y    0.000095  -0.000111   0.000000   0.000000  -0.011021
   58  H  2  Z   -0.000000   0.000000  -0.000560   0.001001   0.000000
   59  H  2 XX    0.000236  -0.000016   0.000000   0.000000   0.000015
   60  H  2 YY   -0.000679  -0.000386   0.000000   0.000000   0.001571
   61  H  2 ZZ    0.000443   0.000402   0.000000   0.000000  -0.001587
   62  H  2 XY    0.000667   0.000370   0.000000   0.000000  -0.001556
   63  H  2 XZ   -0.000000   0.000000  -0.000025   0.000227   0.000000
   64  H  2 YZ   -0.000000   0.000000   0.000223  -0.000292   0.000000
   65  H  3  S    0.004445  -0.002814   0.000000   0.000000   0.074526
   66  H  3  S    0.002141  -0.000901   0.000000   0.000000   0.107613
   67  H  3  S    0.001379  -0.000355   0.000000   0.000000   0.010136
   68  H  3  X    0.000417  -0.000444   0.000000   0.000000   0.003494
   69  H  3  Y    0.001258  -0.000769   0.000000   0.000000   0.006051
   70  H  3  Z   -0.000000   0.000000  -0.000227  -0.000381   0.000000
   71  H  3  X   -0.000577   0.000064   0.000000   0.000000   0.006363
   72  H  3  Y    0.000209   0.000111   0.000000   0.000000   0.011021
   73  H  3  Z   -0.000000   0.000000  -0.000587  -0.000985   0.000000
   74  H  3 XX   -0.000265  -0.000016   0.000000   0.000000   0.000015
   75  H  3 YY    0.000652  -0.000386   0.000000   0.000000   0.001571
   76  H  3 ZZ   -0.000387   0.000402   0.000000   0.000000  -0.001587
   77  H  3 XY    0.000545  -0.000370   0.000000   0.000000   0.001556
   78  H  3 XZ   -0.000000   0.000000  -0.000031  -0.000226   0.000000
   79  H  3 YZ   -0.000000   0.000000  -0.000231  -0.000286   0.000000
   80  H  4  S    0.000635  -0.002814   0.000000   0.000000   0.074526
   81  H  4  S    0.000306  -0.000901   0.000000   0.000000   0.107613
   82  H  4  S    0.000197  -0.000355   0.000000   0.000000   0.010136
   83  H  4  X   -0.000185   0.000888   0.000000   0.000000  -0.006987
   84  H  4  Y    0.000447   0.000000   0.000000   0.000000   0.000000
   85  H  4  Z   -0.000000   0.000000   0.000444  -0.000006   0.000000
   86  H  4  X    0.000015  -0.000128   0.000000   0.000000  -0.012726
   87  H  4  Y    0.001008   0.000000   0.000000   0.000000  -0.000000
   88  H  4  Z   -0.000000   0.000000   0.001147  -0.000016   0.000000
   89  H  4 XX    0.000119  -0.000571   0.000000   0.000000   0.002349
   90  H  4 YY   -0.000063   0.000169   0.000000   0.000000  -0.000762
   91  H  4 ZZ   -0.000055   0.000402   0.000000   0.000000  -0.001587
   92  H  4 XY   -0.000310   0.000000   0.000000   0.000000   0.000000
   93  H  4 XZ   -0.000000   0.000000  -0.000420   0.000006   0.000000
   94  H  4 YZ   -0.000000   0.000000   0.000001   0.000103   0.000000

                     16         17         18         19         20
                    1.7204     1.7204     1.2381     0.2905     0.0294
                     A          A          A          A          A   
    1  AS 1  S   -0.000000   0.000000   0.000000   0.001257  -0.000000
    2  AS 1  S   -0.000000   0.000000   0.000000   0.009555   0.000000
    3  AS 1  S   -0.000000  -0.000000   0.000000   0.063200   0.000000
    4  AS 1  S   -0.000000  -0.000000   0.000000   0.491281  -0.000000
    5  AS 1  S    0.000000  -0.000000   0.000000   0.249910  -0.000000
    6  AS 1  S    0.000000  -0.000000   0.000000   0.661272   0.000000
    7  AS 1  X   -0.003991  -0.000284   0.000000   0.000000  -0.001167
    8  AS 1  Y    0.000284  -0.003991   0.000000   0.000000   0.014190
    9  AS 1  Z    0.000000   0.000000  -0.000249   0.000000  -0.000000
   10  AS 1  X   -0.053156  -0.003778   0.000000  -0.000000  -0.015757
   11  AS 1  Y    0.003778  -0.053156   0.000000   0.000000   0.191582
   12  AS 1  Z    0.000000   0.000000  -0.001189   0.000000  -0.000000
   13  AS 1  X    0.363263   0.025819   0.000000  -0.000000  -0.080353
   14  AS 1  Y   -0.025819   0.363263   0.000000   0.000000   0.977003
   15  AS 1  Z    0.000000   0.000000   0.613185   0.000000  -0.000000
   16  AS 1  X    0.166672   0.011846   0.000000   0.000000  -0.021631
   17  AS 1  Y   -0.011846   0.166672   0.000000  -0.000000   0.263003
   18  AS 1  Z    0.000000   0.000000   0.226752   0.000000  -0.000000
   19  AS 1  X    0.065762   0.004674   0.000000   0.000000  -0.017338
   20  AS 1  Y   -0.004674   0.065762   0.000000  -0.000000   0.210809
   21  AS 1  Z    0.000000   0.000000   0.294902   0.000000  -0.000000
   22  AS 1 XX   -0.053516  -0.003804   0.000000   0.057921  -0.008542
   23  AS 1 YY    0.053516   0.003804   0.000000   0.057921   0.008542
   24  AS 1 ZZ   -0.000000   0.000000   0.000000  -0.115842  -0.000000
   25  AS 1 XY   -0.004392   0.061795   0.000000   0.000000  -0.119922
   26  AS 1 XZ    0.000000   0.000000  -0.000000   0.000000  -0.000000
   27  AS 1 YZ    0.000000   0.000000   0.000000   0.000000  -0.000000
   28  AS 1 XX    0.028254   0.002008   0.000000  -0.047925   0.004964
   29  AS 1 YY   -0.028254  -0.002008   0.000000  -0.047925  -0.004964
   30  AS 1 ZZ    0.000000   0.000000   0.000000   0.095850   0.000000
   31  AS 1 XY    0.002319  -0.032625   0.000000  -0.000000   0.069698
   32  AS 1 XZ    0.000000   0.000000   0.000000   0.000000  -0.000000
   33  AS 1 YZ    0.000000   0.000000   0.000000   0.000000  -0.000000
   34  AS 1 XX    0.021162   0.001504   0.000000  -0.092532  -0.003397
   35  AS 1 YY   -0.021162  -0.001504   0.000000  -0.092532   0.003397
   36  AS 1 ZZ    0.000000   0.000000   0.000000   0.185064   0.000000
   37  AS 1 XY    0.001737  -0.024436   0.000000  -0.000000  -0.047690
   38  AS 1 XZ    0.000000   0.000000  -0.000000   0.000000  -0.000000
   39  AS 1 YZ    0.000000   0.000000   0.000000   0.000000  -0.000000
   40  AS 1 XXX   0.007803   0.000555   0.000000  -0.044034   0.000512
   41  AS 1 YYY  -0.000555   0.007803   0.000000   0.000000  -0.006230
   42  AS 1 ZZZ   0.000000   0.000000  -0.014266   0.000000  -0.000000
   43  AS 1 XXY  -0.000248   0.003490   0.000000   0.000000  -0.002786
   44  AS 1 XXZ   0.000000   0.000000   0.009570   0.000000  -0.000000
   45  AS 1 YYX   0.003490   0.000248   0.000000   0.059078   0.000229
   46  AS 1 YYZ   0.000000   0.000000   0.009570   0.000000  -0.000000
   47  AS 1 ZZX  -0.013958  -0.000992   0.000000  -0.000000  -0.000917
   48  AS 1 ZZY   0.000992  -0.013958   0.000000  -0.000000   0.011144
   49  AS 1 XYZ   0.000000   0.000000   0.000000   0.000000  -0.000000
   50  H  2  S   -0.090966   0.134530   0.000000  -0.139356  -0.241080
   51  H  2  S   -0.159414   0.235759   0.000000  -0.325774  -0.691174
   52  H  2  S   -0.045389   0.067127   0.000000  -0.302555  -0.063058
   53  H  2  X   -0.001815   0.005695   0.000000   0.000585  -0.002241
   54  H  2  Y    0.006370  -0.007682   0.000000  -0.001013   0.010005
   55  H  2  Z    0.000000   0.000000   0.004526   0.000000  -0.000000
   56  H  2  X   -0.003537   0.014043   0.000000  -0.000320  -0.046314
   57  H  2  Y    0.015569  -0.017937   0.000000   0.000555   0.112808
   58  H  2  Z    0.000000   0.000000   0.023141   0.000000  -0.000000
   59  H  2 XX    0.001425   0.000317   0.000000  -0.000468   0.002478
   60  H  2 YY   -0.002674   0.001529   0.000000  -0.000020  -0.009672
   61  H  2 ZZ    0.001248  -0.001846   0.000000   0.000488   0.007193
   62  H  2 XY    0.001098  -0.003241   0.000000  -0.000448   0.006899
   63  H  2 XZ    0.000000   0.000000   0.001328   0.000000  -0.000000
   64  H  2 YZ    0.000000   0.000000  -0.002301   0.000000  -0.000000
   65  H  3  S   -0.071024  -0.146044   0.000000  -0.139356   0.219223
   66  H  3  S   -0.124467  -0.255936   0.000000  -0.325774   0.628510
   67  H  3  S   -0.035439  -0.072872   0.000000  -0.302555   0.057341
   68  H  3  X   -0.000991  -0.005894   0.000000   0.000585   0.000916
   69  H  3  Y   -0.005219  -0.008506   0.000000   0.001013   0.009746
   70  H  3  Z    0.000000   0.000000   0.004526   0.000000  -0.000000
   71  H  3  X   -0.001515  -0.014402   0.000000  -0.000320   0.036147
   72  H  3  Y   -0.012875  -0.019959   0.000000  -0.000555   0.106026
   73  H  3  Z    0.000000   0.000000   0.023141   0.000000  -0.000000
   74  H  3 XX    0.001456  -0.000113   0.000000  -0.000468  -0.003086
   75  H  3 YY   -0.002431  -0.001892   0.000000  -0.000020   0.009627
   76  H  3 ZZ    0.000975   0.002004   0.000000   0.000488  -0.006541
   77  H  3 XY   -0.000629  -0.003364   0.000000   0.000448   0.005719
   78  H  3 XZ    0.000000   0.000000   0.001328   0.000000  -0.000000
   79  H  3 YZ    0.000000   0.000000   0.002301   0.000000  -0.000000
   80  H  4  S    0.161990   0.011513   0.000000  -0.139356   0.021857
   81  H  4  S    0.283880   0.020177   0.000000  -0.325774   0.062664
   82  H  4  S    0.080828   0.005745   0.000000  -0.302555   0.005717
   83  H  4  X   -0.011439  -0.000813   0.000000  -0.001170  -0.000887
   84  H  4  Y   -0.000138   0.001942   0.000000   0.000000   0.007142
   85  H  4  Z    0.000000   0.000000   0.004526   0.000000  -0.000000
   86  H  4  X   -0.027159  -0.001930   0.000000   0.000641  -0.010957
   87  H  4  Y   -0.000404   0.005685   0.000000   0.000000   0.038004
   88  H  4  Z    0.000000   0.000000   0.023141   0.000000  -0.000000
   89  H  4 XX    0.004403   0.000313   0.000000   0.000204   0.001071
   90  H  4 YY   -0.002180  -0.000155   0.000000  -0.000692  -0.000418
   91  H  4 ZZ   -0.002223  -0.000158   0.000000   0.000488  -0.000652
   92  H  4 XY    0.000128  -0.001807   0.000000   0.000000  -0.006123
   93  H  4 XZ    0.000000   0.000000  -0.002657   0.000000  -0.000000
   94  H  4 YZ    0.000000   0.000000   0.000000   0.000000  -0.000000

                     21
                    0.0294
                     A   
    1  AS 1  S   -0.000000
    2  AS 1  S   -0.000000
    3  AS 1  S   -0.000000
    4  AS 1  S   -0.000000
    5  AS 1  S    0.000000
    6  AS 1  S    0.000000
    7  AS 1  X    0.014190
    8  AS 1  Y    0.001167
    9  AS 1  Z    0.000000
   10  AS 1  X    0.191582
   11  AS 1  Y    0.015757
   12  AS 1  Z    0.000000
   13  AS 1  X    0.977003
   14  AS 1  Y    0.080353
   15  AS 1  Z    0.000000
   16  AS 1  X    0.263003
   17  AS 1  Y    0.021631
   18  AS 1  Z    0.000000
   19  AS 1  X    0.210809
   20  AS 1  Y    0.017338
   21  AS 1  Z    0.000000
   22  AS 1 XX    0.103856
   23  AS 1 YY   -0.103856
   24  AS 1 ZZ   -0.000000
   25  AS 1 XY   -0.009863
   26  AS 1 XZ    0.000000
   27  AS 1 YZ    0.000000
   28  AS 1 XX   -0.060360
   29  AS 1 YY    0.060360
   30  AS 1 ZZ    0.000000
   31  AS 1 XY    0.005732
   32  AS 1 XZ    0.000000
   33  AS 1 YZ    0.000000
   34  AS 1 XX    0.041301
   35  AS 1 YY   -0.041301
   36  AS 1 ZZ    0.000000
   37  AS 1 XY   -0.003922
   38  AS 1 XZ    0.000000
   39  AS 1 YZ    0.000000
   40  AS 1 XXX  -0.006230
   41  AS 1 YYY  -0.000512
   42  AS 1 ZZZ   0.000000
   43  AS 1 XXY  -0.000229
   44  AS 1 XXZ   0.000000
   45  AS 1 YYX  -0.002786
   46  AS 1 YYZ   0.000000
   47  AS 1 ZZX   0.011144
   48  AS 1 ZZY   0.000917
   49  AS 1 XYZ   0.000000
   50  H  2  S    0.113949
   51  H  2  S    0.326691
   52  H  2  S    0.029805
   53  H  2  X    0.007924
   54  H  2  Y   -0.000766
   55  H  2  Z    0.000000
   56  H  2  X    0.058417
   57  H  2  Y   -0.032232
   58  H  2  Z    0.000000
   59  H  2 XX    0.003925
   60  H  2 YY   -0.000525
   61  H  2 ZZ   -0.003400
   62  H  2 XY   -0.006659
   63  H  2 XZ    0.000000
   64  H  2 YZ    0.000000
   65  H  3  S    0.151807
   66  H  3  S    0.435228
   67  H  3  S    0.039707
   68  H  3  X    0.008183
   69  H  3  Y    0.002390
   70  H  3  Z    0.000000
   71  H  3  X    0.065199
   72  H  3  Y    0.050229
   73  H  3  Z    0.000000
   74  H  3 XX    0.003467
   75  H  3 YY    0.001062
   76  H  3 ZZ   -0.004530
   77  H  3 XY    0.007696
   78  H  3 XZ    0.000000
   79  H  3 YZ    0.000000
   80  H  4  S   -0.265757
   81  H  4  S   -0.761920
   82  H  4  S   -0.069512
   83  H  4  X    0.010787
   84  H  4  Y    0.000587
   85  H  4  Z    0.000000
   86  H  4  X    0.133221
   87  H  4  Y    0.003126
   88  H  4  Z    0.000000
   89  H  4 XX   -0.013017
   90  H  4 YY    0.005088
   91  H  4 ZZ    0.007930
   92  H  4 XY   -0.000504
   93  H  4 XZ    0.000000
   94  H  4 YZ    0.000000

          ------------------------
          MCSCF OPTIMIZED ORBITALS
          ------------------------

                      1          2          3          4          5
                 -432.8954   -56.6209   -50.4654   -50.4653   -50.4653
                     A          A          A          A          A   
    1  AS 1  S    0.999999   0.000003   0.000000   0.000000   0.000000
    2  AS 1  S    0.000001   1.000103   0.000000  -0.000000   0.000000
    3  AS 1  S   -0.000004   0.000135   0.000000  -0.000000   0.000000
    4  AS 1  S   -0.000005   0.000143   0.000000   0.000000   0.000000
    5  AS 1  S    0.000016  -0.000426   0.000000   0.000000   0.000000
    6  AS 1  S    0.000005  -0.000140   0.000000   0.000000   0.000000
    7  AS 1  X   -0.000000   0.000000   0.000000   0.997862  -0.065742
    8  AS 1  Y   -0.000000  -0.000000   0.000000   0.065742   0.997862
    9  AS 1  Z   -0.000000  -0.000000   1.000026   0.000000   0.000000
   10  AS 1  X    0.000000  -0.000000   0.000000  -0.000003   0.000000
   11  AS 1  Y   -0.000000  -0.000000   0.000000  -0.000000  -0.000003
   12  AS 1  Z   -0.000000  -0.000000   0.000001   0.000000   0.000000
   13  AS 1  X    0.000000  -0.000000   0.000000  -0.000088   0.000006
   14  AS 1  Y    0.000000  -0.000000   0.000000  -0.000006  -0.000088
   15  AS 1  Z   -0.000000  -0.000000  -0.000002   0.000000   0.000000
   16  AS 1  X   -0.000000   0.000000   0.000000  -0.000499   0.000033
   17  AS 1  Y   -0.000000  -0.000000   0.000000  -0.000033  -0.000499
   18  AS 1  Z   -0.000000  -0.000000  -0.000447   0.000000   0.000000
   19  AS 1  X   -0.000000  -0.000000   0.000000  -0.000090   0.000006
   20  AS 1  Y   -0.000000  -0.000000   0.000000  -0.000006  -0.000090
   21  AS 1  Z   -0.000000  -0.000000  -0.000069   0.000000   0.000000
   22  AS 1 XX    0.000000  -0.000001   0.000000   0.000002  -0.000000
   23  AS 1 YY    0.000000  -0.000001   0.000000  -0.000002   0.000000
   24  AS 1 ZZ   -0.000000   0.000001   0.000000  -0.000000   0.000000
   25  AS 1 XY   -0.000000  -0.000000   0.000000  -0.000000  -0.000002
   26  AS 1 XZ   -0.000000  -0.000000   0.000000   0.000000   0.000000
   27  AS 1 YZ   -0.000000  -0.000000   0.000000   0.000000   0.000000
   28  AS 1 XX    0.000000  -0.000002   0.000000  -0.000056   0.000004
   29  AS 1 YY    0.000000  -0.000002   0.000000   0.000056  -0.000004
   30  AS 1 ZZ   -0.000000   0.000004   0.000000   0.000000   0.000000
   31  AS 1 XY   -0.000000  -0.000000   0.000000   0.000004   0.000064
   32  AS 1 XZ   -0.000000  -0.000000   0.000000   0.000000   0.000000
   33  AS 1 YZ   -0.000000  -0.000000   0.000000   0.000000   0.000000
   34  AS 1 XX    0.000000  -0.000002   0.000000  -0.000016   0.000001
   35  AS 1 YY    0.000000  -0.000002   0.000000   0.000016  -0.000001
   36  AS 1 ZZ   -0.000000   0.000004   0.000000  -0.000000   0.000000
   37  AS 1 XY   -0.000000   0.000000   0.000000   0.000001   0.000018
   38  AS 1 XZ   -0.000000  -0.000000   0.000000   0.000000   0.000000
   39  AS 1 YZ   -0.000000  -0.000000   0.000000   0.000000   0.000000
   40  AS 1 XXX   0.000000  -0.000006   0.000000  -0.000013   0.000001
   41  AS 1 YYY  -0.000000  -0.000000   0.000000  -0.000001  -0.000013
   42  AS 1 ZZZ  -0.000000  -0.000000  -0.000000   0.000000   0.000000
   43  AS 1 XXY  -0.000000  -0.000000   0.000000  -0.000000  -0.000006
   44  AS 1 XXZ  -0.000000  -0.000000   0.000000   0.000000   0.000000
   45  AS 1 YYX  -0.000000   0.000008   0.000000  -0.000006   0.000000
   46  AS 1 YYZ  -0.000000  -0.000000   0.000000   0.000000   0.000000
   47  AS 1 ZZX  -0.000000   0.000000   0.000000   0.000024  -0.000002
   48  AS 1 ZZY  -0.000000  -0.000000   0.000000   0.000002   0.000024
   49  AS 1 XYZ  -0.000000  -0.000000   0.000000   0.000000   0.000000
   50  H  2  S   -0.000000   0.000006   0.000000   0.000006  -0.000013
   51  H  2  S   -0.000000   0.000011   0.000000  -0.000031   0.000063
   52  H  2  S   -0.000001   0.000029   0.000000  -0.000021   0.000042
   53  H  2  X   -0.000000   0.000002   0.000000  -0.000004   0.000007
   54  H  2  Y    0.000000  -0.000003   0.000000   0.000006  -0.000013
   55  H  2  Z   -0.000000  -0.000000   0.000001   0.000000   0.000000
   56  H  2  X   -0.000000   0.000004   0.000000  -0.000017   0.000031
   57  H  2  Y    0.000000  -0.000008   0.000000   0.000027  -0.000056
   58  H  2  Z   -0.000000  -0.000000  -0.000005   0.000000   0.000000
   59  H  2 XX    0.000000  -0.000001   0.000000   0.000005  -0.000003
   60  H  2 YY   -0.000000   0.000005   0.000000  -0.000014   0.000022
   61  H  2 ZZ    0.000000  -0.000004   0.000000   0.000010  -0.000020
   62  H  2 XY    0.000000  -0.000006   0.000000   0.000012  -0.000029
   63  H  2 XZ   -0.000000  -0.000000   0.000003   0.000000   0.000000
   64  H  2 YZ   -0.000000  -0.000000  -0.000005   0.000000   0.000000
   65  H  3  S   -0.000000   0.000006   0.000000   0.000008   0.000012
   66  H  3  S   -0.000000   0.000011   0.000000  -0.000039  -0.000058
   67  H  3  S   -0.000001   0.000029   0.000000  -0.000026  -0.000039
   68  H  3  X   -0.000000   0.000002   0.000000  -0.000005  -0.000007
   69  H  3  Y   -0.000000   0.000003   0.000000  -0.000008  -0.000012
   70  H  3  Z   -0.000000  -0.000000   0.000001   0.000000   0.000000
   71  H  3  X   -0.000000   0.000004   0.000000  -0.000021  -0.000029
   72  H  3  Y   -0.000000   0.000008   0.000000  -0.000034  -0.000052
   73  H  3  Z   -0.000000  -0.000000  -0.000005   0.000000   0.000000
   74  H  3 XX    0.000000  -0.000001   0.000000   0.000005   0.000002
   75  H  3 YY   -0.000000   0.000005   0.000000  -0.000017  -0.000020
   76  H  3 ZZ    0.000000  -0.000004   0.000000   0.000012   0.000018
   77  H  3 XY   -0.000000   0.000006   0.000000  -0.000016  -0.000027
   78  H  3 XZ   -0.000000  -0.000000   0.000003   0.000000   0.000000
   79  H  3 YZ   -0.000000  -0.000000   0.000005   0.000000   0.000000
   80  H  4  S   -0.000000   0.000006   0.000000  -0.000014   0.000001
   81  H  4  S   -0.000000   0.000011   0.000000   0.000070  -0.000005
   82  H  4  S   -0.000001   0.000029   0.000000   0.000047  -0.000003
   83  H  4  X    0.000000  -0.000004   0.000000  -0.000017   0.000001
   84  H  4  Y   -0.000000  -0.000000   0.000000  -0.000000  -0.000001
   85  H  4  Z   -0.000000  -0.000000   0.000001   0.000000   0.000000
   86  H  4  X    0.000000  -0.000009   0.000000  -0.000072   0.000005
   87  H  4  Y   -0.000000  -0.000000   0.000000  -0.000000  -0.000002
   88  H  4  Z   -0.000000  -0.000000  -0.000005   0.000000   0.000000
   89  H  4 XX   -0.000000   0.000008   0.000000   0.000042  -0.000003
   90  H  4 YY    0.000000  -0.000004   0.000000  -0.000020   0.000001
   91  H  4 ZZ    0.000000  -0.000004   0.000000  -0.000022   0.000001
   92  H  4 XY   -0.000000  -0.000000   0.000000  -0.000000  -0.000004
   93  H  4 XZ   -0.000000  -0.000000  -0.000006   0.000000   0.000000
   94  H  4 YZ   -0.000000  -0.000000   0.000000   0.000000   0.000000

                      6          7          8          9         10
                   -8.3450    -6.1998    -6.1998    -6.1964    -2.4338
                     A          A          A          A          A   
    1  AS 1  S   -0.000085  -0.000000  -0.000000   0.000000   0.000000
    2  AS 1  S   -0.000609  -0.000000  -0.000000   0.000000   0.000000
    3  AS 1  S    0.975257  -0.000000  -0.000000   0.000000  -0.000000
    4  AS 1  S   -0.001924  -0.000000  -0.000000   0.000000   0.000000
    5  AS 1  S    0.036270   0.000000   0.000000   0.000000   0.000000
    6  AS 1  S    0.004132   0.000000  -0.000000   0.000000   0.000000
    7  AS 1  X   -0.000000   0.000020  -0.000104   0.000000   0.000215
    8  AS 1  Y   -0.000000  -0.000104  -0.000020   0.000000   0.000025
    9  AS 1  Z   -0.000000  -0.000000   0.000000   0.000031   0.000000
   10  AS 1  X   -0.000000  -0.185030   0.956664   0.000000   0.001047
   11  AS 1  Y   -0.000000   0.956664   0.185030   0.000000   0.000121
   12  AS 1  Z   -0.000000  -0.000000   0.000000   0.975679   0.000000
   13  AS 1  X   -0.000000   0.000190  -0.000982   0.000000   0.004633
   14  AS 1  Y   -0.000000  -0.000982  -0.000190   0.000000   0.000535
   15  AS 1  Z   -0.000000  -0.000000   0.000000   0.000431   0.000000
   16  AS 1  X    0.000000  -0.009076   0.046926   0.000000  -0.001878
   17  AS 1  Y    0.000000   0.046926   0.009076   0.000000  -0.000217
   18  AS 1  Z   -0.000000  -0.000000   0.000000   0.046644   0.000000
   19  AS 1  X   -0.000000  -0.000393   0.002030   0.000000  -0.002545
   20  AS 1  Y   -0.000000   0.002030   0.000393   0.000000  -0.000294
   21  AS 1  Z   -0.000000  -0.000000   0.000000   0.001652   0.000000
   22  AS 1 XX    0.000324  -0.000115   0.000597   0.000000   0.831658
   23  AS 1 YY    0.000324   0.000115  -0.000597   0.000000  -0.831658
   24  AS 1 ZZ   -0.000647  -0.000000  -0.000000   0.000000  -0.000000
   25  AS 1 XY   -0.000000  -0.000689  -0.000133   0.000000  -0.110850
   26  AS 1 XZ   -0.000000  -0.000000   0.000000   0.000000   0.000000
   27  AS 1 YZ   -0.000000  -0.000000   0.000000   0.000000   0.000000
   28  AS 1 XX    0.000051   0.000063  -0.000325   0.000000   0.072816
   29  AS 1 YY    0.000051  -0.000063   0.000325   0.000000  -0.072816
   30  AS 1 ZZ   -0.000101  -0.000000   0.000000   0.000000  -0.000000
   31  AS 1 XY    0.000000   0.000375   0.000073   0.000000  -0.009706
   32  AS 1 XZ   -0.000000  -0.000000   0.000000   0.000000   0.000000
   33  AS 1 YZ   -0.000000  -0.000000   0.000000   0.000000   0.000000
   34  AS 1 XX   -0.000015   0.000041  -0.000210   0.000000   0.000448
   35  AS 1 YY   -0.000015  -0.000041   0.000210   0.000000  -0.000448
   36  AS 1 ZZ    0.000031  -0.000000   0.000000   0.000000   0.000000
   37  AS 1 XY    0.000000   0.000243   0.000047   0.000000  -0.000060
   38  AS 1 XZ   -0.000000  -0.000000   0.000000  -0.000000   0.000000
   39  AS 1 YZ   -0.000000  -0.000000   0.000000   0.000000   0.000000
   40  AS 1 XXX   0.000049  -0.000010   0.000052   0.000000   0.000438
   41  AS 1 YYY  -0.000000   0.000052   0.000010   0.000000   0.000051
   42  AS 1 ZZZ  -0.000000  -0.000000   0.000000  -0.000215   0.000000
   43  AS 1 XXY  -0.000000   0.000023   0.000005   0.000000   0.000023
   44  AS 1 XXZ  -0.000000  -0.000000   0.000000   0.000144   0.000000
   45  AS 1 YYX  -0.000066  -0.000005   0.000023   0.000000   0.000196
   46  AS 1 YYZ  -0.000000  -0.000000   0.000000   0.000144   0.000000
   47  AS 1 ZZX   0.000000   0.000018  -0.000094   0.000000  -0.000783
   48  AS 1 ZZY   0.000000  -0.000094  -0.000018   0.000000  -0.000090
   49  AS 1 XYZ  -0.000000  -0.000000   0.000000   0.000000   0.000000
   50  H  2  S    0.000002   0.000406  -0.000140   0.000000  -0.002200
   51  H  2  S    0.000333   0.001883  -0.000650   0.000000  -0.001059
   52  H  2  S   -0.000677  -0.000658   0.000227   0.000000  -0.000683
   53  H  2  X   -0.000004   0.000024   0.000014   0.000000  -0.000679
   54  H  2  Y    0.000006  -0.000026   0.000022   0.000000   0.000350
   55  H  2  Z   -0.000000  -0.000000   0.000000   0.000011   0.000000
   56  H  2  X    0.000006   0.000267   0.000006   0.000000  -0.000779
   57  H  2  Y   -0.000010  -0.000393   0.000193   0.000000  -0.000512
   58  H  2  Z   -0.000000  -0.000000   0.000000   0.000124   0.000000
   59  H  2 XX   -0.000004  -0.000051  -0.000011   0.000000  -0.000153
   60  H  2 YY    0.000025   0.000138  -0.000019   0.000000  -0.000039
   61  H  2 ZZ   -0.000021  -0.000087   0.000030   0.000000   0.000192
   62  H  2 XY   -0.000029  -0.000166   0.000076   0.000000   0.000459
   63  H  2 XZ   -0.000000  -0.000000   0.000000  -0.000018   0.000000
   64  H  2 YZ   -0.000000  -0.000000   0.000000   0.000030   0.000000
   65  H  3  S    0.000002  -0.000324  -0.000281   0.000000  -0.003299
   66  H  3  S    0.000333  -0.001504  -0.001305   0.000000  -0.001589
   67  H  3  S   -0.000677   0.000526   0.000456   0.000000  -0.001024
   68  H  3  X   -0.000004  -0.000028   0.000004   0.000000  -0.000795
   69  H  3  Y   -0.000006  -0.000016  -0.000030   0.000000  -0.000654
   70  H  3  Z   -0.000000  -0.000000   0.000000   0.000011   0.000000
   71  H  3  X    0.000006  -0.000250  -0.000094   0.000000  -0.000665
   72  H  3  Y    0.000010  -0.000293  -0.000325   0.000000   0.000476
   73  H  3  Z   -0.000000  -0.000000   0.000000   0.000124   0.000000
   74  H  3 XX   -0.000004   0.000051   0.000009   0.000000  -0.000095
   75  H  3 YY    0.000025  -0.000121  -0.000070   0.000000  -0.000192
   76  H  3 ZZ   -0.000021   0.000070   0.000060   0.000000   0.000287
   77  H  3 XY    0.000029  -0.000126  -0.000133   0.000000  -0.000599
   78  H  3 XZ   -0.000000  -0.000000   0.000000  -0.000018   0.000000
   79  H  3 YZ   -0.000000  -0.000000   0.000000  -0.000030   0.000000
   80  H  4  S    0.000002  -0.000082   0.000422   0.000000   0.005499
   81  H  4  S    0.000333  -0.000378   0.001956   0.000000   0.002648
   82  H  4  S   -0.000677   0.000132  -0.000683   0.000000   0.001706
   83  H  4  X    0.000007   0.000007  -0.000036   0.000000  -0.001606
   84  H  4  Y   -0.000000   0.000024   0.000005   0.000000  -0.000052
   85  H  4  Z   -0.000000  -0.000000   0.000000   0.000011   0.000000
   86  H  4  X   -0.000011   0.000095  -0.000492   0.000000   0.000133
   87  H  4  Y   -0.000000   0.000105   0.000020   0.000000  -0.000116
   88  H  4  Z   -0.000000  -0.000000   0.000000   0.000124   0.000000
   89  H  4 XX    0.000040  -0.000043   0.000224   0.000000   0.001029
   90  H  4 YY   -0.000018   0.000026  -0.000133   0.000000  -0.000550
   91  H  4 ZZ   -0.000021   0.000017  -0.000090   0.000000  -0.000479
[...]
      109    0.056040   -0.056040  +-22+00
      822   -0.052887    0.052887  2+02002
      122   -0.050863   -0.050863  +2-200+
      113    0.050863   -0.050863  +-220+0
       42   -0.043716    0.043716  22020+0
       75   -0.039713   -0.039713  -+22+00
      810    0.039574    0.039574  -++2+0-
       53   -0.036474   -0.036474  2-+200+
      332    0.032282   -0.032282  ++-2-0+
      526   -0.029180   -0.029180  ++220-0
      841    0.029180   -0.029180  +2+200-
      878   -0.028972   -0.028972  ++-2+0-
      809   -0.027395    0.027395  20+2+0-
      458    0.027395   -0.027395  2+02+-0
      323   -0.025876    0.025876  +022-+0
      320   -0.025715   -0.025715  0+22200
      264   -0.025634    0.025634  -++2-0+
      534   -0.025476   -0.025476  0+22020
      894   -0.025396   -0.025396  0+22002
      252   -0.024402   -0.024402  2+02-+0
      263    0.024402    0.024402  20+2-0+
      806    0.024257    0.024257  2++200-
      462   -0.022476    0.022476  2+02020
      529    0.021835    0.021835  +022+-0
       54    0.021683   -0.021683  -2+200+
       79   -0.021683   -0.021683  -+220+0
$REFDET GROUP NOT FOUND. LEAVING DIABATIZATION.
 CPU     0: STEP CPU TIME=     0.11 TOTAL CPU TIME=        148.6 (      2.5 MIN)
 TOTAL WALL CLOCK TIME=        158.6 SECONDS, CPU UTILIZATION IS    93.67%

TRANSITION DIPOLES BETWEEN ADIABATS (in A.U.):

STATE PAIR      X         Y         Z
    1    1 -0.000000 -0.000000 -0.000000
    2    1  0.000000  0.000000  0.466969
    2    2 -0.000000 -0.000000  0.000000
    3    1 -0.000000 -0.000000  0.000000
    3    2 -0.004381  0.166337 -0.000000
    3    3  0.417513 -0.022006  0.000000
    4    1 -0.000000  0.000000 -0.000000
    4    2  0.166337  0.004380 -0.000000
    4    3  0.022006  0.417513 -0.000000
    4    4 -0.417513  0.022006  0.000000


TRANSITION DIPOLES BETWEEN DIABATS (in A.U.):

STATE PAIR      X         Y         Z
    1    1  0.000000  0.000000  0.000000
    2    1  0.000000  0.000000  0.000000
    2    2  0.000000  0.000000  0.000000
    3    1  0.000000  0.000000  0.000000
    3    2  0.000000  0.000000  0.000000
    3    3  0.000000  0.000000  0.000000
    4    1  0.000000  0.000000  0.000000
    4    2  0.000000  0.000000  0.000000
    4    3  0.000000  0.000000  0.000000
    4    4  0.000000  0.000000  0.000000

TRANSITION DIPOLES BETWEEN DIRECT MAX. DIABATS (in A.U.):

STATE PAIR      X         Y         Z
    1    1  0.000000  0.000000  0.000000
    2    1  0.000000  0.000000  0.000000
    2    2  0.000000  0.000000  0.000000
    3    1  0.000000  0.000000  0.000000
    3    2  0.000000  0.000000  0.000000
    3    3  0.000000  0.000000  0.000000
    4    1  0.000000  0.000000  0.000000
    4    2  0.000000  0.000000  0.000000
    4    3  0.000000  0.000000  0.000000
    4    4  0.000000  0.000000  0.000000
 No $TRANST Group Found.
 Quit without doing spin-orbit coupling
 ..... DONE WITH MP2 ENERGY .....
 CPU     0: STEP CPU TIME=     0.00 TOTAL CPU TIME=        148.6 (      2.5 MIN)
 TOTAL WALL CLOCK TIME=        158.6 SECONDS, CPU UTILIZATION IS    93.66%
            250000000  WORDS OF DYNAMIC MEMORY USED
 EXECUTION OF GAMESS TERMINATED NORMALLY Mon Dec  4 10:16:54 2023
 DDI: 7163544 bytes (6.8 MB / 0 MWords) used by master data server.
Note: The following floating-point exceptions are signalling: IEEE_UNDERFLOW_FLAG IEEE_DENORMAL
Note: The following floating-point exceptions are signalling: IEEE_UNDERFLOW_FLAG IEEE_DENORMAL
Note: The following floating-point exceptions are signalling: IEEE_UNDERFLOW_FLAG IEEE_DENORMAL

 ----------------------------------------
 CPU timing information for all processes
 ========================================
 0: 147.449 + 1.130 = 148.579
 1: 147.558 + 1.85 = 148.643
 2: 148.476 + 1.233 = 149.710
 3: 146.956 + 1.02 = 147.959
 ----------------------------------------
Note: The following floating-point exceptions are signalling: IEEE_UNDERFLOW_FLAG IEEE_DENORMAL
 ddikick.x: exited gracefully.
unset echo
----- accounting info -----
Files used on the master node io001 were:
-rw-r--r-- 1 bjb2chen nooijen  141710 Dec  4 10:14 /home/bjb2chen/gmsscr//ash3cat_rohf_cct_gmcpt_7o7e_C1_4st_dmo.F05
-rw-r--r-- 1 bjb2chen nooijen  926008 Dec  4 10:16 /home/bjb2chen/gmsscr//ash3cat_rohf_cct_gmcpt_7o7e_C1_4st_dmo.F09
-rw-r--r-- 1 bjb2chen nooijen 1800160 Dec  4 10:16 /home/bjb2chen/gmsscr//ash3cat_rohf_cct_gmcpt_7o7e_C1_4st_dmo.F09.001
-rw-r--r-- 1 bjb2chen nooijen 1260112 Dec  4 10:16 /home/bjb2chen/gmsscr//ash3cat_rohf_cct_gmcpt_7o7e_C1_4st_dmo.F09.002
-rw-r--r-- 1 bjb2chen nooijen 1620144 Dec  4 10:16 /home/bjb2chen/gmsscr//ash3cat_rohf_cct_gmcpt_7o7e_C1_4st_dmo.F09.003
-rw-r--r-- 1 bjb2chen nooijen 3010240 Dec  4 10:16 /home/bjb2chen/gmsscr//ash3cat_rohf_cct_gmcpt_7o7e_C1_4st_dmo.F10
-rw-r--r-- 1 bjb2chen nooijen  531160 Dec  4 10:16 /home/bjb2chen/gmsscr//ash3cat_rohf_cct_gmcpt_7o7e_C1_4st_dmo.F13
-rw-r--r-- 1 bjb2chen nooijen  531160 Dec  4 10:16 /home/bjb2chen/gmsscr//ash3cat_rohf_cct_gmcpt_7o7e_C1_4st_dmo.F13.001
-rw-r--r-- 1 bjb2chen nooijen  531160 Dec  4 10:16 /home/bjb2chen/gmsscr//ash3cat_rohf_cct_gmcpt_7o7e_C1_4st_dmo.F13.002
-rw-r--r-- 1 bjb2chen nooijen  531160 Dec  4 10:16 /home/bjb2chen/gmsscr//ash3cat_rohf_cct_gmcpt_7o7e_C1_4st_dmo.F13.003
-rw-r--r-- 1 bjb2chen nooijen  181872 Dec  4 10:16 /home/bjb2chen/gmsscr//ash3cat_rohf_cct_gmcpt_7o7e_C1_4st_dmo.F15
-rw-r--r-- 1 bjb2chen nooijen       0 Dec  4 10:14 /home/bjb2chen/gmsscr//ash3cat_rohf_cct_gmcpt_7o7e_C1_4st_dmo.F16
-rw-r--r-- 1 bjb2chen nooijen    9808 Dec  4 10:16 /home/bjb2chen/gmsscr//ash3cat_rohf_cct_gmcpt_7o7e_C1_4st_dmo.F70
-rw-r--r-- 1 bjb2chen nooijen    9808 Dec  4 10:16 /home/bjb2chen/gmsscr//ash3cat_rohf_cct_gmcpt_7o7e_C1_4st_dmo.F70.001
-rw-r--r-- 1 bjb2chen nooijen    9808 Dec  4 10:16 /home/bjb2chen/gmsscr//ash3cat_rohf_cct_gmcpt_7o7e_C1_4st_dmo.F70.002
-rw-r--r-- 1 bjb2chen nooijen    9808 Dec  4 10:16 /home/bjb2chen/gmsscr//ash3cat_rohf_cct_gmcpt_7o7e_C1_4st_dmo.F70.003
-rw-r--r-- 1 bjb2chen nooijen    9808 Dec  4 10:16 /home/bjb2chen/gmsscr//ash3cat_rohf_cct_gmcpt_7o7e_C1_4st_dmo.F71
-rw-r--r-- 1 bjb2chen nooijen    9808 Dec  4 10:16 /home/bjb2chen/gmsscr//ash3cat_rohf_cct_gmcpt_7o7e_C1_4st_dmo.F71.001
-rw-r--r-- 1 bjb2chen nooijen    9808 Dec  4 10:16 /home/bjb2chen/gmsscr//ash3cat_rohf_cct_gmcpt_7o7e_C1_4st_dmo.F71.002
-rw-r--r-- 1 bjb2chen nooijen    9808 Dec  4 10:16 /home/bjb2chen/gmsscr//ash3cat_rohf_cct_gmcpt_7o7e_C1_4st_dmo.F71.003
-rw-r--r-- 1 bjb2chen nooijen   19608 Dec  4 10:16 /home/bjb2chen/gmsscr//ash3cat_rohf_cct_gmcpt_7o7e_C1_4st_dmo.F72
-rw-r--r-- 1 bjb2chen nooijen   19608 Dec  4 10:16 /home/bjb2chen/gmsscr//ash3cat_rohf_cct_gmcpt_7o7e_C1_4st_dmo.F72.001
-rw-r--r-- 1 bjb2chen nooijen   19608 Dec  4 10:16 /home/bjb2chen/gmsscr//ash3cat_rohf_cct_gmcpt_7o7e_C1_4st_dmo.F72.002
-rw-r--r-- 1 bjb2chen nooijen   19608 Dec  4 10:16 /home/bjb2chen/gmsscr//ash3cat_rohf_cct_gmcpt_7o7e_C1_4st_dmo.F72.003
-rw-r--r-- 1 bjb2chen nooijen   19608 Dec  4 10:16 /home/bjb2chen/gmsscr//ash3cat_rohf_cct_gmcpt_7o7e_C1_4st_dmo.F73
-rw-r--r-- 1 bjb2chen nooijen   19608 Dec  4 10:16 /home/bjb2chen/gmsscr//ash3cat_rohf_cct_gmcpt_7o7e_C1_4st_dmo.F73.001
-rw-r--r-- 1 bjb2chen nooijen   19608 Dec  4 10:16 /home/bjb2chen/gmsscr//ash3cat_rohf_cct_gmcpt_7o7e_C1_4st_dmo.F73.002
-rw-r--r-- 1 bjb2chen nooijen   19608 Dec  4 10:16 /home/bjb2chen/gmsscr//ash3cat_rohf_cct_gmcpt_7o7e_C1_4st_dmo.F73.003
-rw-r--r-- 1 bjb2chen nooijen  481400 Dec  4 10:16 /home/bjb2chen/gmsscr//ash3cat_rohf_cct_gmcpt_7o7e_C1_4st_dmo.F74
-rw-r--r-- 1 bjb2chen nooijen  480616 Dec  4 10:16 /home/bjb2chen/gmsscr//ash3cat_rohf_cct_gmcpt_7o7e_C1_4st_dmo.F74.001
-rw-r--r-- 1 bjb2chen nooijen  479832 Dec  4 10:16 /home/bjb2chen/gmsscr//ash3cat_rohf_cct_gmcpt_7o7e_C1_4st_dmo.F74.002
-rw-r--r-- 1 bjb2chen nooijen  479048 Dec  4 10:16 /home/bjb2chen/gmsscr//ash3cat_rohf_cct_gmcpt_7o7e_C1_4st_dmo.F74.003
-rw-r--r-- 1 bjb2chen nooijen       0 Dec  4 10:14 /home/bjb2chen/gmsscr//ash3cat_rohf_cct_gmcpt_7o7e_C1_4st_dmo.F75
-rw-r--r-- 1 bjb2chen nooijen       0 Dec  4 10:14 /home/bjb2chen/gmsscr//ash3cat_rohf_cct_gmcpt_7o7e_C1_4st_dmo.F75.001
-rw-r--r-- 1 bjb2chen nooijen       0 Dec  4 10:14 /home/bjb2chen/gmsscr//ash3cat_rohf_cct_gmcpt_7o7e_C1_4st_dmo.F75.002
-rw-r--r-- 1 bjb2chen nooijen       0 Dec  4 10:14 /home/bjb2chen/gmsscr//ash3cat_rohf_cct_gmcpt_7o7e_C1_4st_dmo.F75.003
-rw-r--r-- 1 bjb2chen nooijen   78456 Dec  4 10:16 /home/bjb2chen/gmsscr//ash3cat_rohf_cct_gmcpt_7o7e_C1_4st_dmo.F76
-rw-r--r-- 1 bjb2chen nooijen   78456 Dec  4 10:16 /home/bjb2chen/gmsscr//ash3cat_rohf_cct_gmcpt_7o7e_C1_4st_dmo.F76.001
-rw-r--r-- 1 bjb2chen nooijen   78456 Dec  4 10:16 /home/bjb2chen/gmsscr//ash3cat_rohf_cct_gmcpt_7o7e_C1_4st_dmo.F76.002
-rw-r--r-- 1 bjb2chen nooijen   78456 Dec  4 10:16 /home/bjb2chen/gmsscr//ash3cat_rohf_cct_gmcpt_7o7e_C1_4st_dmo.F76.003
-rw-r--r-- 1 bjb2chen nooijen       0 Dec  4 10:14 /home/bjb2chen/gmsscr//ash3cat_rohf_cct_gmcpt_7o7e_C1_4st_dmo.F77
-rw-r--r-- 1 bjb2chen nooijen       0 Dec  4 10:14 /home/bjb2chen/gmsscr//ash3cat_rohf_cct_gmcpt_7o7e_C1_4st_dmo.F77.001
-rw-r--r-- 1 bjb2chen nooijen       0 Dec  4 10:14 /home/bjb2chen/gmsscr//ash3cat_rohf_cct_gmcpt_7o7e_C1_4st_dmo.F77.002
-rw-r--r-- 1 bjb2chen nooijen       0 Dec  4 10:14 /home/bjb2chen/gmsscr//ash3cat_rohf_cct_gmcpt_7o7e_C1_4st_dmo.F77.003
-rw-r--r-- 1 bjb2chen nooijen    6408 Dec  4 10:16 /home/bjb2chen/gmsscr//ash3cat_rohf_cct_gmcpt_7o7e_C1_4st_dmo.F78
-rw-r--r-- 1 bjb2chen nooijen    6408 Dec  4 10:16 /home/bjb2chen/gmsscr//ash3cat_rohf_cct_gmcpt_7o7e_C1_4st_dmo.F78.001
-rw-r--r-- 1 bjb2chen nooijen    6408 Dec  4 10:16 /home/bjb2chen/gmsscr//ash3cat_rohf_cct_gmcpt_7o7e_C1_4st_dmo.F78.002
-rw-r--r-- 1 bjb2chen nooijen    6408 Dec  4 10:16 /home/bjb2chen/gmsscr//ash3cat_rohf_cct_gmcpt_7o7e_C1_4st_dmo.F78.003
-rw-r--r-- 1 bjb2chen nooijen   49008 Dec  4 10:16 /home/bjb2chen/gmsscr//ash3cat_rohf_cct_gmcpt_7o7e_C1_4st_dmo.F79
-rw-r--r-- 1 bjb2chen nooijen   49008 Dec  4 10:16 /home/bjb2chen/gmsscr//ash3cat_rohf_cct_gmcpt_7o7e_C1_4st_dmo.F79.001
-rw-r--r-- 1 bjb2chen nooijen   49008 Dec  4 10:16 /home/bjb2chen/gmsscr//ash3cat_rohf_cct_gmcpt_7o7e_C1_4st_dmo.F79.002
-rw-r--r-- 1 bjb2chen nooijen   49008 Dec  4 10:16 /home/bjb2chen/gmsscr//ash3cat_rohf_cct_gmcpt_7o7e_C1_4st_dmo.F79.003
-rw-r--r-- 1 bjb2chen nooijen     168 Dec  4 10:16 /home/bjb2chen/gmsscr//ash3cat_rohf_cct_gmcpt_7o7e_C1_4st_dmo.F80
-rw-r--r-- 1 bjb2chen nooijen     168 Dec  4 10:16 /home/bjb2chen/gmsscr//ash3cat_rohf_cct_gmcpt_7o7e_C1_4st_dmo.F80.001
-rw-r--r-- 1 bjb2chen nooijen     168 Dec  4 10:16 /home/bjb2chen/gmsscr//ash3cat_rohf_cct_gmcpt_7o7e_C1_4st_dmo.F80.002
-rw-r--r-- 1 bjb2chen nooijen     168 Dec  4 10:16 /home/bjb2chen/gmsscr//ash3cat_rohf_cct_gmcpt_7o7e_C1_4st_dmo.F80.003
-rw-r--r-- 1 bjb2chen nooijen  102416 Dec  4 10:16 /home/bjb2chen/gmsscr//ash3cat_rohf_cct_gmcpt_7o7e_C1_4st_dmo.F81
-rw-r--r-- 1 bjb2chen nooijen  102416 Dec  4 10:16 /home/bjb2chen/gmsscr//ash3cat_rohf_cct_gmcpt_7o7e_C1_4st_dmo.F81.001
-rw-r--r-- 1 bjb2chen nooijen  102416 Dec  4 10:16 /home/bjb2chen/gmsscr//ash3cat_rohf_cct_gmcpt_7o7e_C1_4st_dmo.F81.002
-rw-r--r-- 1 bjb2chen nooijen  102416 Dec  4 10:16 /home/bjb2chen/gmsscr//ash3cat_rohf_cct_gmcpt_7o7e_C1_4st_dmo.F81.003
-rw-r--r-- 1 bjb2chen nooijen     656 Dec  4 10:16 /home/bjb2chen/gmsscr//ash3cat_rohf_cct_gmcpt_7o7e_C1_4st_dmo.F82
-rw-r--r-- 1 bjb2chen nooijen     656 Dec  4 10:16 /home/bjb2chen/gmsscr//ash3cat_rohf_cct_gmcpt_7o7e_C1_4st_dmo.F82.001
-rw-r--r-- 1 bjb2chen nooijen     656 Dec  4 10:16 /home/bjb2chen/gmsscr//ash3cat_rohf_cct_gmcpt_7o7e_C1_4st_dmo.F82.002
-rw-r--r-- 1 bjb2chen nooijen     656 Dec  4 10:16 /home/bjb2chen/gmsscr//ash3cat_rohf_cct_gmcpt_7o7e_C1_4st_dmo.F82.003
-rw-r--r-- 1 bjb2chen nooijen   19216 Dec  4 10:16 /home/bjb2chen/gmsscr//ash3cat_rohf_cct_gmcpt_7o7e_C1_4st_dmo.F83
-rw-r--r-- 1 bjb2chen nooijen   19216 Dec  4 10:16 /home/bjb2chen/gmsscr//ash3cat_rohf_cct_gmcpt_7o7e_C1_4st_dmo.F83.001
-rw-r--r-- 1 bjb2chen nooijen   19216 Dec  4 10:16 /home/bjb2chen/gmsscr//ash3cat_rohf_cct_gmcpt_7o7e_C1_4st_dmo.F83.002
-rw-r--r-- 1 bjb2chen nooijen   19216 Dec  4 10:16 /home/bjb2chen/gmsscr//ash3cat_rohf_cct_gmcpt_7o7e_C1_4st_dmo.F83.003
-rw-r--r-- 1 bjb2chen nooijen  327696 Dec  4 10:16 /home/bjb2chen/gmsscr//ash3cat_rohf_cct_gmcpt_7o7e_C1_4st_dmo.F84
-rw-r--r-- 1 bjb2chen nooijen  327696 Dec  4 10:16 /home/bjb2chen/gmsscr//ash3cat_rohf_cct_gmcpt_7o7e_C1_4st_dmo.F84.001
-rw-r--r-- 1 bjb2chen nooijen  327696 Dec  4 10:16 /home/bjb2chen/gmsscr//ash3cat_rohf_cct_gmcpt_7o7e_C1_4st_dmo.F84.002
-rw-r--r-- 1 bjb2chen nooijen  327696 Dec  4 10:16 /home/bjb2chen/gmsscr//ash3cat_rohf_cct_gmcpt_7o7e_C1_4st_dmo.F84.003
-rw-r--r-- 1 bjb2chen nooijen 1834664 Dec  4 10:16 /home/bjb2chen/gmsscr//ash3cat_rohf_cct_gmcpt_7o7e_C1_4st_dmo.F85
-rw-r--r-- 1 bjb2chen nooijen 1834664 Dec  4 10:16 /home/bjb2chen/gmsscr//ash3cat_rohf_cct_gmcpt_7o7e_C1_4st_dmo.F85.001
-rw-r--r-- 1 bjb2chen nooijen 1834664 Dec  4 10:16 /home/bjb2chen/gmsscr//ash3cat_rohf_cct_gmcpt_7o7e_C1_4st_dmo.F85.002
-rw-r--r-- 1 bjb2chen nooijen 1834664 Dec  4 10:16 /home/bjb2chen/gmsscr//ash3cat_rohf_cct_gmcpt_7o7e_C1_4st_dmo.F85.003
-rw-r--r-- 1 bjb2chen nooijen 3696672 Dec  4 10:16 /home/bjb2chen/gmsscr//ash3cat_rohf_cct_gmcpt_7o7e_C1_4st_dmo.F86
-rw-r--r-- 1 bjb2chen nooijen 3832640 Dec  4 10:16 /home/bjb2chen/gmsscr//ash3cat_rohf_cct_gmcpt_7o7e_C1_4st_dmo.F86.001
-rw-r--r-- 1 bjb2chen nooijen 3813440 Dec  4 10:16 /home/bjb2chen/gmsscr//ash3cat_rohf_cct_gmcpt_7o7e_C1_4st_dmo.F86.002
-rw-r--r-- 1 bjb2chen nooijen 3689696 Dec  4 10:16 /home/bjb2chen/gmsscr//ash3cat_rohf_cct_gmcpt_7o7e_C1_4st_dmo.F86.003
-rw-r--r-- 1 bjb2chen nooijen    1160 Dec  4 10:16 /home/bjb2chen/gmsscr//ash3cat_rohf_cct_gmcpt_7o7e_C1_4st_dmo.F87
-rw-r--r-- 1 bjb2chen nooijen    1160 Dec  4 10:16 /home/bjb2chen/gmsscr//ash3cat_rohf_cct_gmcpt_7o7e_C1_4st_dmo.F87.001
-rw-r--r-- 1 bjb2chen nooijen    1160 Dec  4 10:16 /home/bjb2chen/gmsscr//ash3cat_rohf_cct_gmcpt_7o7e_C1_4st_dmo.F87.002
-rw-r--r-- 1 bjb2chen nooijen    1160 Dec  4 10:16 /home/bjb2chen/gmsscr//ash3cat_rohf_cct_gmcpt_7o7e_C1_4st_dmo.F87.003
-rw-r--r-- 1 bjb2chen nooijen   24736 Dec  4 10:16 /home/bjb2chen/gmsscr//ash3cat_rohf_cct_gmcpt_7o7e_C1_4st_dmo.F88
-rw-r--r-- 1 bjb2chen nooijen   24736 Dec  4 10:16 /home/bjb2chen/gmsscr//ash3cat_rohf_cct_gmcpt_7o7e_C1_4st_dmo.F88.001
-rw-r--r-- 1 bjb2chen nooijen   24736 Dec  4 10:16 /home/bjb2chen/gmsscr//ash3cat_rohf_cct_gmcpt_7o7e_C1_4st_dmo.F88.002
-rw-r--r-- 1 bjb2chen nooijen   24736 Dec  4 10:16 /home/bjb2chen/gmsscr//ash3cat_rohf_cct_gmcpt_7o7e_C1_4st_dmo.F88.003
-rw-r--r-- 1 bjb2chen nooijen     648 Dec  4 10:16 /home/bjb2chen/gmsscr//ash3cat_rohf_cct_gmcpt_7o7e_C1_4st_dmo.F89
-rw-r--r-- 1 bjb2chen nooijen     648 Dec  4 10:16 /home/bjb2chen/gmsscr//ash3cat_rohf_cct_gmcpt_7o7e_C1_4st_dmo.F89.001
-rw-r--r-- 1 bjb2chen nooijen     648 Dec  4 10:16 /home/bjb2chen/gmsscr//ash3cat_rohf_cct_gmcpt_7o7e_C1_4st_dmo.F89.002
-rw-r--r-- 1 bjb2chen nooijen     648 Dec  4 10:16 /home/bjb2chen/gmsscr//ash3cat_rohf_cct_gmcpt_7o7e_C1_4st_dmo.F89.003
-rw-r--r-- 1 bjb2chen nooijen       0 Dec  4 10:14 /home/bjb2chen/gmsscr//ash3cat_rohf_cct_gmcpt_7o7e_C1_4st_dmo.F90
-rw-r--r-- 1 bjb2chen nooijen       0 Dec  4 10:14 /home/bjb2chen/gmsscr//ash3cat_rohf_cct_gmcpt_7o7e_C1_4st_dmo.F90.001
-rw-r--r-- 1 bjb2chen nooijen       0 Dec  4 10:14 /home/bjb2chen/gmsscr//ash3cat_rohf_cct_gmcpt_7o7e_C1_4st_dmo.F90.002
-rw-r--r-- 1 bjb2chen nooijen       0 Dec  4 10:14 /home/bjb2chen/gmsscr//ash3cat_rohf_cct_gmcpt_7o7e_C1_4st_dmo.F90.003
-rw-r--r-- 1 bjb2chen nooijen   13760 Dec  4 10:16 /home/bjb2chen/gmsscr//ash3cat_rohf_cct_gmcpt_7o7e_C1_4st_dmo.F91
-rw-r--r-- 1 bjb2chen nooijen   13760 Dec  4 10:16 /home/bjb2chen/gmsscr//ash3cat_rohf_cct_gmcpt_7o7e_C1_4st_dmo.F91.001
-rw-r--r-- 1 bjb2chen nooijen   13760 Dec  4 10:16 /home/bjb2chen/gmsscr//ash3cat_rohf_cct_gmcpt_7o7e_C1_4st_dmo.F91.002
-rw-r--r-- 1 bjb2chen nooijen   13760 Dec  4 10:16 /home/bjb2chen/gmsscr//ash3cat_rohf_cct_gmcpt_7o7e_C1_4st_dmo.F91.003
-rw-r--r-- 1 bjb2chen nooijen   22776 Dec  4 10:16 /home/bjb2chen/gmsscr//ash3cat_rohf_cct_gmcpt_7o7e_C1_4st_dmo.F92
-rw-r--r-- 1 bjb2chen nooijen   22776 Dec  4 10:16 /home/bjb2chen/gmsscr//ash3cat_rohf_cct_gmcpt_7o7e_C1_4st_dmo.F92.001
-rw-r--r-- 1 bjb2chen nooijen   22776 Dec  4 10:16 /home/bjb2chen/gmsscr//ash3cat_rohf_cct_gmcpt_7o7e_C1_4st_dmo.F92.002
-rw-r--r-- 1 bjb2chen nooijen   22776 Dec  4 10:16 /home/bjb2chen/gmsscr//ash3cat_rohf_cct_gmcpt_7o7e_C1_4st_dmo.F92.003
-rw-r--r-- 1 bjb2chen nooijen   23168 Dec  4 10:16 /home/bjb2chen/gmsscr//ash3cat_rohf_cct_gmcpt_7o7e_C1_4st_dmo.F93
-rw-r--r-- 1 bjb2chen nooijen   23168 Dec  4 10:16 /home/bjb2chen/gmsscr//ash3cat_rohf_cct_gmcpt_7o7e_C1_4st_dmo.F93.001
-rw-r--r-- 1 bjb2chen nooijen   23168 Dec  4 10:16 /home/bjb2chen/gmsscr//ash3cat_rohf_cct_gmcpt_7o7e_C1_4st_dmo.F93.002
-rw-r--r-- 1 bjb2chen nooijen   23168 Dec  4 10:16 /home/bjb2chen/gmsscr//ash3cat_rohf_cct_gmcpt_7o7e_C1_4st_dmo.F93.003
-rw-r--r-- 1 bjb2chen nooijen   22776 Dec  4 10:16 /home/bjb2chen/gmsscr//ash3cat_rohf_cct_gmcpt_7o7e_C1_4st_dmo.F94
-rw-r--r-- 1 bjb2chen nooijen   22776 Dec  4 10:16 /home/bjb2chen/gmsscr//ash3cat_rohf_cct_gmcpt_7o7e_C1_4st_dmo.F94.001
-rw-r--r-- 1 bjb2chen nooijen   22776 Dec  4 10:16 /home/bjb2chen/gmsscr//ash3cat_rohf_cct_gmcpt_7o7e_C1_4st_dmo.F94.002
-rw-r--r-- 1 bjb2chen nooijen   22776 Dec  4 10:16 /home/bjb2chen/gmsscr//ash3cat_rohf_cct_gmcpt_7o7e_C1_4st_dmo.F94.003
-rw-r--r-- 1 bjb2chen nooijen   13760 Dec  4 10:16 /home/bjb2chen/gmsscr//ash3cat_rohf_cct_gmcpt_7o7e_C1_4st_dmo.F95
-rw-r--r-- 1 bjb2chen nooijen   13760 Dec  4 10:16 /home/bjb2chen/gmsscr//ash3cat_rohf_cct_gmcpt_7o7e_C1_4st_dmo.F95.001
-rw-r--r-- 1 bjb2chen nooijen   13760 Dec  4 10:16 /home/bjb2chen/gmsscr//ash3cat_rohf_cct_gmcpt_7o7e_C1_4st_dmo.F95.002
-rw-r--r-- 1 bjb2chen nooijen   13760 Dec  4 10:16 /home/bjb2chen/gmsscr//ash3cat_rohf_cct_gmcpt_7o7e_C1_4st_dmo.F95.003
-rw-r--r-- 1 bjb2chen nooijen   39248 Dec  4 10:16 /home/bjb2chen/gmsscr//ash3cat_rohf_cct_gmcpt_7o7e_C1_4st_dmo.F96
-rw-r--r-- 1 bjb2chen nooijen   39248 Dec  4 10:16 /home/bjb2chen/gmsscr//ash3cat_rohf_cct_gmcpt_7o7e_C1_4st_dmo.F96.001
-rw-r--r-- 1 bjb2chen nooijen   39248 Dec  4 10:16 /home/bjb2chen/gmsscr//ash3cat_rohf_cct_gmcpt_7o7e_C1_4st_dmo.F96.002
-rw-r--r-- 1 bjb2chen nooijen   39248 Dec  4 10:16 /home/bjb2chen/gmsscr//ash3cat_rohf_cct_gmcpt_7o7e_C1_4st_dmo.F96.003
-rw-r--r-- 1 bjb2chen nooijen    1184 Dec  4 10:16 /home/bjb2chen/gmsscr//ash3cat_rohf_cct_gmcpt_7o7e_C1_4st_dmo.F97
-rw-r--r-- 1 bjb2chen nooijen    1184 Dec  4 10:16 /home/bjb2chen/gmsscr//ash3cat_rohf_cct_gmcpt_7o7e_C1_4st_dmo.F97.001
-rw-r--r-- 1 bjb2chen nooijen    1184 Dec  4 10:16 /home/bjb2chen/gmsscr//ash3cat_rohf_cct_gmcpt_7o7e_C1_4st_dmo.F97.002
-rw-r--r-- 1 bjb2chen nooijen    1184 Dec  4 10:16 /home/bjb2chen/gmsscr//ash3cat_rohf_cct_gmcpt_7o7e_C1_4st_dmo.F97.003
-rw-r--r-- 1 bjb2chen nooijen    9808 Dec  4 10:16 /home/bjb2chen/gmsscr//ash3cat_rohf_cct_gmcpt_7o7e_C1_4st_dmo.F98
-rw-r--r-- 1 bjb2chen nooijen    9808 Dec  4 10:16 /home/bjb2chen/gmsscr//ash3cat_rohf_cct_gmcpt_7o7e_C1_4st_dmo.F98.001
-rw-r--r-- 1 bjb2chen nooijen    9808 Dec  4 10:16 /home/bjb2chen/gmsscr//ash3cat_rohf_cct_gmcpt_7o7e_C1_4st_dmo.F98.002
-rw-r--r-- 1 bjb2chen nooijen    9808 Dec  4 10:16 /home/bjb2chen/gmsscr//ash3cat_rohf_cct_gmcpt_7o7e_C1_4st_dmo.F98.003
-rw-r--r-- 1 bjb2chen nooijen   30264 Dec  4 10:16 /home/bjb2chen/gmsscr//ash3cat_rohf_cct_gmcpt_7o7e_C1_4st_dmo.F99
-rw-r--r-- 1 bjb2chen nooijen   30264 Dec  4 10:16 /home/bjb2chen/gmsscr//ash3cat_rohf_cct_gmcpt_7o7e_C1_4st_dmo.F99.001
-rw-r--r-- 1 bjb2chen nooijen   30264 Dec  4 10:16 /home/bjb2chen/gmsscr//ash3cat_rohf_cct_gmcpt_7o7e_C1_4st_dmo.F99.002
-rw-r--r-- 1 bjb2chen nooijen   30264 Dec  4 10:16 /home/bjb2chen/gmsscr//ash3cat_rohf_cct_gmcpt_7o7e_C1_4st_dmo.F99.003
ls: No match.
ls: No match.
ls: No match.
Mon 04 Dec 2023 10:16:57 AM EST
0.283u 0.076s 2:42.11 0.2%	0+0k 280+496io 0pf+0w
