----- GAMESS execution script 'rungms' -----
This job is running on host io003
under operating system Linux at Mon 04 Dec 2023 10:28:47 AM EST
Available scratch disk space (Kbyte units) at beginning of the job is
Filesystem             1K-blocks       Used Available Use% Mounted on
helmholtz.nlogn:/home 6391504896 5230540800 838824960  87% /home
GAMESS temporary binary files will be written to /home/bjb2chen/gmsscr/
GAMESS supplementary output files will be written to /home/bjb2chen/gamess/vibronics/ash3/4state
Copying input file AsH3cat_cct_gmcpt_C1_3st_diab_mode12_+0.05.inp to your run's scratch directory...
cp AsH3cat_cct_gmcpt_C1_3st_diab_mode12_+0.05.inp /home/bjb2chen/gmsscr//AsH3cat_cct_gmcpt_C1_3st_diab_mode12_+0.05.F05
unset echo
 
Assuming a single but multicore node.
 
/home/bjb2chen/gamess/ddikick.x /home/bjb2chen/gamess/gamess.00.x AsH3cat_cct_gmcpt_C1_3st_diab_mode12_+0.05 -ddi 1 2 io003:cpus=2 -scr /home/bjb2chen/gmsscr/

 Distributed Data Interface kickoff program.
 Initiating 2 compute processes on 1 nodes to run the following command:
 /home/bjb2chen/gamess/gamess.00.x AsH3cat_cct_gmcpt_C1_3st_diab_mode12_+0.05 

          ******************************************************
          *         GAMESS VERSION = 02 AUG 2018 (R2)         *
          *             FROM IOWA STATE UNIVERSITY             *
          * M.W.SCHMIDT, K.K.BALDRIDGE, J.A.BOATZ, S.T.ELBERT, *
          *   M.S.GORDON, J.H.JENSEN, S.KOSEKI, N.MATSUNAGA,   *
          *          K.A.NGUYEN, S.J.SU, T.L.WINDUS,           *
          *       TOGETHER WITH M.DUPUIS, J.A.MONTGOMERY       *
          *         J.COMPUT.CHEM.  14, 1347-1363(1993)        *
          **************** 64 BIT LINUX VERSION ****************

  SINCE 1993, STUDENTS AND POSTDOCS WORKING AT IOWA STATE UNIVERSITY
  AND ALSO IN THEIR VARIOUS JOBS AFTER LEAVING ISU HAVE MADE IMPORTANT
  CONTRIBUTIONS TO THE CODE:
     IVANA ADAMOVIC, CHRISTINE AIKENS, YURI ALEXEEV, POOJA ARORA,
     ANDREY ASADCHEV, ROB BELL, PRADIPTA BANDYOPADHYAY, JONATHAN BENTZ,
     BRETT BODE, KURT BRORSEN, CALEB CARLIN, GALINA CHABAN, WEI CHEN,
     CHEOL HO CHOI, PAUL DAY, ALBERT DEFUSCO, NUWAN DESILVA, TIM DUDLEY,
     DMITRI FEDOROV, ALEX FINDLATER, GRAHAM FLETCHER, MARK FREITAG,
     KURT GLAESEMANN, ANASTASIA GUININA,
     DAN KEMP, GRANT MERRILL, NORIYUKI MINEZAWA, JONATHAN MULLIN,
     TAKESHI NAGATA, SEAN NEDD, HEATHER NETZLOFF, BOSILJKA NJEGIC, RYAN OLSON,
     MIKE PAK, BUU PHAM,
     SPENCER PRUITT, LUKE ROSKOP, JIM SHOEMAKER, LYUDMILA SLIPCHENKO,
     TONY SMITH, SAROM SOK LEANG, JIE SONG, TETSUYA TAKETSUGU, SIMON WEBB,
     PENG XU, SOOHAENG YOO, FEDERICO ZAHARIEV

  ADDITIONAL CODE HAS BEEN PROVIDED BY COLLABORATORS IN OTHER GROUPS:
     IOWA STATE UNIVERSITY:
          JOE IVANIC, AARON WEST, LAIMUTIS BYTAUTAS, KLAUS RUEDENBERG
     UNIVERSITY OF TOKYO: KIMIHIKO HIRAO, TAKAHITO NAKAJIMA,
          TAKAO TSUNEDA, MUNEAKI KAMIYA, SUSUMU YANAGISAWA,
          KIYOSHI YAGI, MAHITO CHIBA, SEIKEN TOKURA, NAOAKI KAWAKAMI
     UNIVERSITY OF AARHUS: FRANK JENSEN
     UNIVERSITY OF IOWA: VISVALDAS KAIRYS, HUI LI
     NATIONAL INST. OF STANDARDS AND TECHNOLOGY: WALT STEVENS, DAVID GARMER
     UNIVERSITY OF PISA: BENEDETTA MENNUCCI, JACOPO TOMASI
     UNIVERSITY OF MEMPHIS: HENRY KURTZ, PRAKASHAN KORAMBATH
     UNIVERSITY OF ALBERTA: TOBY ZENG, MARIUSZ KLOBUKOWSKI
     UNIVERSITY OF NEW ENGLAND: MARK SPACKMAN
     MIE UNIVERSITY: HIROAKI UMEDA
     NAT. INST. OF ADVANCED INDUSTRIAL SCIENCE AND TECHNOLOGY: KAZUO KITAURA
     MICHIGAN STATE UNIVERSITY:
          KAROL KOWALSKI, MARTA WLOCH, JEFFREY GOUR, JESSE LUTZ,
          WEI LI, JUN SHEN, J. EMILIANO DEUSTUA, PIOTR PIECUCH
     UNIVERSITY OF MINNESOTA:
          YINAN SHU
     UNIVERSITY OF SILESIA: MONIKA MUSIAL, STANISLAW KUCHARSKI
     FACULTES UNIVERSITAIRES NOTRE-DAME DE LA PAIX:
          OLIVIER QUINET, BENOIT CHAMPAGNE
     UNIVERSITY OF CALIFORNIA - SANTA BARBARA: BERNARD KIRTMAN
     INSTITUTE FOR MOLECULAR SCIENCE:
          KAZUYA ISHIMURA, MICHIO KATOUDA, AND SHIGERU NAGASE
     UNIVERSITY OF NOTRE DAME: ANNA POMOGAEVA, DAN CHIPMAN
     KYUSHU UNIVERSITY:
          HARUYUKI NAKANO,
          FENG LONG GU, JACEK KORCHOWIEC, MARCIN MAKOWSKI, AND YURIKO AOKI,
          HIROTOSHI MORI AND EISAKU MIYOSHI
     PENNSYLVANIA STATE UNIVERSITY:
          TZVETELIN IORDANOV, CHET SWALINA, JONATHAN SKONE,
          SHARON HAMMES-SCHIFFER
     WASEDA UNIVERSITY:
          MASATO KOBAYASHI, TOMOKO AKAMA, TSUGUKI TOUMA,
          TAKESHI YOSHIKAWA, YASUHIRO IKABATA, JUNJI SEINO,
          YUYA NAKAJIMA, HIROMI NAKAI
     NANJING UNIVERSITY: SHUHUA LI
     UNIVERSITY OF NEBRASKA:
          PEIFENG SU, DEJUN SI, NANDUN THELLAMUREGE, YALI WANG, HUI LI
     UNIVERSITY OF ZURICH: ROBERTO PEVERATI, KIM BALDRIDGE
     N. COPERNICUS UNIVERSITY AND JACKSON STATE UNIVERSITY:
          MARIA BARYSZ
     UNIVERSITY OF COPENHAGEN: Jimmy Kromann, CASPER STEINMANN
     TOKYO INSTITUTE OF TECHNOLOGY: HIROYA NAKATA
     NAGOYA UNIVERSITY: YOSHIO NISHIMOTO, STEPHAN IRLE
     MOSCOW STATE UNIVERSITY: VLADIMIR MIRONOV


 PARALLEL VERSION RUNNING ON        2 PROCESSORS IN        1 NODES.

 EXECUTION OF GAMESS BEGUN Mon Dec  4 10:28:48 2023

            ECHO OF THE FIRST FEW INPUT CARDS -
 INPUT CARD> !Step 4: Calculation using REFDET                                              
 INPUT CARD> $system kdiag=3 mwords=250 memddi=8000 parall=.t. $end                         
 INPUT CARD> $contrl runtyp=energy ispher=1 $end                                            
 INPUT CARD> $contrl icut=9 itol=20 inttyp=rysquad qmttol=1.0d-05 nosym=1 $end              
 INPUT CARD> $scf    npunch=2 conv=1.0d-06 dirscf=.t. diis=.t. soscf=.f. ethrsh=10.0 $end   
 INPUT CARD> $contrl scftyp=mcscf  mult=2 maxit=200 icharg=1 mplevl=2 $end                  
 INPUT CARD> $guess  guess=moread norb=85 purify=.t. $end                                   
 INPUT CARD> $basis  gbasis=cct $end                                                        
 INPUT CARD> $mcscf  cistep=gmcci fullnr=.t. finci=mos                                      
 INPUT CARD>         acurcy=1.d-6 maxit=200 $end                                            
 INPUT CARD> $trans  dirtrf=.t. $end                                                        
 INPUT CARD> $mrmp   mrpt=gmcpt rdvecs=.f. $end                                             
 INPUT CARD> $gmcpt  nmofzc=5 nmodoc=9 nmoact=7 nelact=7 stsym(1)=A                         
 INPUT CARD>         reftyp=ormas nspace=1 mstart(1)=15 mine(1)=7 maxe(1)=7                 
 INPUT CARD>         kstate(1)=1,1,1,1                                                      
 INPUT CARD>         wstate(1)=1,1,1,1                                                      
 INPUT CARD>         iwgt=0 thrwgt=-1.0 krot=.f. kszdoe=.f. knospn=.f.                      
 INPUT CARD>         thrde=-1.0 edshft=0.02 $end                                            
 INPUT CARD> $statpt hssend=.t. $end                                                        
 INPUT CARD> $end                                                                           
 INPUT CARD>--- Semi-canonical MOs --- generated at Mon Dec  4 10:21:58 2023                
 INPUT CARD> $VEC                                                                           
 INPUT CARD> 1  1 9.99999416E-01 7.29973887E-07-3.99440478E-06-4.81875831E-06 1.63484706E-05
 INPUT CARD> 1  2 5.36732169E-06-0.00000000E+00-0.00000000E+00-0.00000000E+00 4.03838885E-11
 INPUT CARD> 1  3-0.00000000E+00-0.00000000E+00 7.96211074E-11 1.14517212E-11-0.00000000E+00
 INPUT CARD> 1  4-1.40849369E-11-0.00000000E+00-0.00000000E+00-2.21867430E-11-0.00000000E+00
 INPUT CARD> 1  5-0.00000000E+00 1.08959399E-07 1.08961145E-07-2.17920544E-07-0.00000000E+00
 INPUT CARD> 1  6-0.00000000E+00-0.00000000E+00 7.02728157E-08 7.02573272E-08-1.40530143E-07
 INPUT CARD> 1  7-0.00000000E+00-0.00000000E+00-0.00000000E+00 8.61676265E-08 8.61266319E-08
 INPUT CARD> 1  8-1.72294258E-07-0.00000000E+00-0.00000000E+00-0.00000000E+00 1.61185015E-07
 INPUT CARD> 1  9-0.00000000E+00-0.00000000E+00-0.00000000E+00-0.00000000E+00-2.16246982E-07
 INPUT CARD> 1 10-0.00000000E+00-0.00000000E+00-0.00000000E+00-0.00000000E+00-2.29650252E-07
 INPUT CARD> 1 11-4.66898658E-07-1.12343498E-06-6.64097518E-08 1.15015824E-07-0.00000000E+00
 INPUT CARD> 1 12-1.90369794E-07 3.29734733E-07-0.00000000E+00 4.67684240E-08-2.10541491E-07
 INPUT CARD> 1 13 1.63773067E-07 2.57316182E-07-0.00000000E+00-0.00000000E+00-2.29652599E-07
 INPUT CARD> 1 14-4.66879487E-07-1.12342770E-06-6.64102175E-08-1.15016523E-07-0.00000000E+00
 INPUT CARD> 1 15-1.90364897E-07-3.29724918E-07-0.00000000E+00 4.67679470E-08-2.10540564E-07
 INPUT CARD> 1 16 1.63772617E-07-2.57315196E-07-0.00000000E+00-0.00000000E+00-2.29639944E-07
 INPUT CARD> 1 17-4.66987046E-07-1.12340031E-06 1.32807841E-07-0.00000000E+00-0.00000000E+00
 INPUT CARD> 1 18 3.80780830E-07-0.00000000E+00-0.00000000E+00-3.39206184E-07 1.75440103E-07
 INPUT CARD> 1 19 1.63766080E-07-0.00000000E+00-0.00000000E+00-0.00000000E+00               
 INPUT CARD> 2  1 2.72313662E-06 1.00010341E+00 1.34746909E-04 1.43214017E-04-4.26044547E-04
 INPUT CARD> 2  2-1.40486446E-04 7.10299112E-11-7.88863849E-11-0.00000000E+00-5.42197215E-11
 INPUT CARD> 2  3-1.27361486E-11-0.00000000E+00-1.68049866E-10-3.19745914E-11-0.00000000E+00
 INPUT CARD> 2  4 2.95588732E-11-0.00000000E+00-0.00000000E+00-0.00000000E+00-0.00000000E+00
 INPUT CARD> 2  5-0.00000000E+00-6.69941071E-07-6.69957164E-07 1.33989824E-06-0.00000000E+00
 INPUT CARD> 2  6-0.00000000E+00-0.00000000E+00-2.23303604E-06-2.23305293E-06 4.46608898E-06
 INPUT CARD> 2  7-0.00000000E+00-0.00000000E+00-0.00000000E+00-1.84537905E-06-1.84515653E-06
 INPUT CARD> 2  8 3.69053558E-06 1.25718203E-11-0.00000000E+00-0.00000000E+00-6.15992627E-06
 INPUT CARD> 2  9-0.00000000E+00-0.00000000E+00-0.00000000E+00-0.00000000E+00 8.26439636E-06
  250000000 WORDS OF MEMORY AVAILABLE

     BASIS OPTIONS
     -------------
     GBASIS=CCT          IGAUSS=       0      POLAR=NONE    
     NDFUNC=       0     NFFUNC=       0     DIFFSP=       F
     NPFUNC=       0      DIFFS=       F     BASNAM=        


     RUN TITLE
     ---------
 AsH3+ calculation at 4 states                                                   

 THE POINT GROUP OF THE MOLECULE IS C1      
 THE ORDER OF THE PRINCIPAL AXIS IS     0

 ATOM      ATOMIC                      COORDINATES (BOHR)
           CHARGE         X                   Y                   Z
 AS         33.0    -0.0001728412       -0.0000003200        0.0000000000
 H           1.0    -1.3822116312        2.3937361581        0.0000000002
 H           1.0    -1.3821972958       -2.3937120215       -0.0000000002
 H           1.0     2.7772583348       -0.0000003465        0.0000000000

          INTERNUCLEAR DISTANCES (ANGS.)
          ------------------------------

                1 AS         2 H          3 H          4 H     

   1 AS      0.0000000    1.4626755 *  1.4626604 *  1.4697534 *
   2 H       1.4626755 *  0.0000000    2.5334087 *  2.5395637 *
   3 H       1.4626604 *  2.5334087 *  0.0000000    2.5395506 *
   4 H       1.4697534 *  2.5395637 *  2.5395506 *  0.0000000  

  * ... LESS THAN  3.000


     ATOMIC BASIS SET
     ----------------
 THE CONTRACTED PRIMITIVE FUNCTIONS HAVE BEEN UNNORMALIZED
 THE CONTRACTED BASIS FUNCTIONS ARE NOW NORMALIZED TO UNITY

  SHELL TYPE  PRIMITIVE        EXPONENT          CONTRACTION COEFFICIENT(S)

 AS        

      1   S       1       8482340.0000000    0.000006800003
      1   S       2       1270151.0000000    0.000052800023
      1   S       3        289057.0000000    0.000277400122
      1   S       4         81879.8500000    0.001170200514
      1   S       5         26716.5600000    0.004242101862
      1   S       6          9647.5840000    0.013655705995
      1   S       7          3764.1190000    0.039339917271
      1   S       8          1561.5660000    0.099929243872
      1   S       9           680.8147000    0.212155593142
      1   S      10           309.2412000    0.336386747683
      1   S      11           145.2574000    0.315512638518
      1   S      12            69.7390500    0.118131251863
      1   S      13            31.7703200    0.008007603516
      1   S      14            15.3917600    0.000329300145
      1   S      15             7.3415260   -0.000152300067
      1   S      16             3.3237160    0.000024700011
      1   S      17             1.4858670   -0.000036600016
      1   S      18             0.2115000   -0.000009400004

      2   S      19       8482340.0000000   -0.000002099844
      2   S      20       1270151.0000000   -0.000016498771
      2   S      21        289057.0000000   -0.000086593551
      2   S      22         81879.8500000   -0.000365272798
      2   S      23         26716.5600000   -0.001330800894
      2   S      24          9647.5840000   -0.004308979105
      2   S      25          3764.1190000   -0.012696354487
      2   S      26          1561.5660000   -0.033613496762
      2   S      27           680.8147000   -0.078941121158
      2   S      28           309.2412000   -0.151434522485
      2   S      29           145.2574000   -0.204186194004
      2   S      30            69.7390500   -0.055732549529
      2   S      31            31.7703200    0.418729516699
      2   S      32            15.3917600    0.575833316987
      2   S      33             7.3415260    0.169671564351
      2   S      34             3.3237160    0.006065748276
      2   S      35             1.4858670    0.001760368903
      2   S      36             0.2115000    0.000231582754

      3   S      37       8482340.0000000    0.000000818623
      3   S      38       1270151.0000000    0.000006548987
      3   S      39        289057.0000000    0.000034484509
      3   S      40         81879.8500000    0.000145612630
      3   S      41         26716.5600000    0.000530877249
      3   S      42          9647.5840000    0.001719313712
      3   S      43          3764.1190000    0.005083344082
      3   S      44          1561.5660000    0.013519053150
      3   S      45           680.8147000    0.032188884481
      3   S      46           309.2412000    0.063284292808
      3   S      47           145.2574000    0.090004159277
      3   S      48            69.7390500    0.026354351138
      3   S      49            31.7703200   -0.251262012099
      3   S      50            15.3917600   -0.520907644337
      3   S      51             7.3415260   -0.056868639208
      3   S      52             3.3237160    0.724870110338
      3   S      53             1.4858670    0.535280112340
      3   S      54             0.2115000   -0.011376408833

      4   S      55       8482340.0000000   -0.000000322182
      4   S      56       1270151.0000000   -0.000002899636
      4   S      57        289057.0000000   -0.000014981451
      4   S      58         81879.8500000   -0.000063147623
      4   S      59         26716.5600000   -0.000230198862
      4   S      60          9647.5840000   -0.000745689664
      4   S      61          3764.1190000   -0.002204850817
      4   S      62          1561.5660000   -0.005870151514
      4   S      63           680.8147000   -0.013996219653
      4   S      64           309.2412000   -0.027636106289
      4   S      65           145.2574000   -0.039550065282
      4   S      66            69.7390500   -0.011844045553
      4   S      67            31.7703200    0.115999445484
      4   S      68            15.3917600    0.253920137348
      4   S      69             7.3415260    0.022886825089
      4   S      70             3.3237160   -0.459365613804
      4   S      71             1.4858670   -0.625893951029
      4   S      72             0.2115000    1.046339525967

      5   S      73             0.4210860    1.000000000000

      6   S      74             0.0889740    1.000000000000

      7   P      75          7423.8610000    0.000459888095
      7   P      76          1759.5170000    0.003982196918
      7   P      77           570.2292000    0.021463244409
      7   P      78           216.5800000    0.082459565479
      7   P      79            90.7342500    0.223884404601
      7   P      80            40.3087900    0.392060251256
      7   P      81            18.5555000    0.354214630915
      7   P      82             8.3965430    0.104861385592
      7   P      83             3.7673670    0.003366312861
      7   P      84             1.6297010    0.001849452126
      7   P      85             0.2225030    0.000229694054

      8   P      86          7423.8610000   -0.000183933273
      8   P      87          1759.5170000   -0.001603623364
      8   P      88           570.2292000   -0.008714684634
      8   P      89           216.5800000   -0.034482567311
      8   P      90            90.7342500   -0.097731519242
      8   P      91            40.3087900   -0.183894927481
      8   P      92            18.5555000   -0.150374370146
      8   P      93             8.3965430    0.201569541112
      8   P      94             3.7673670    0.550783570924
      8   P      95             1.6297010    0.395483295494
      8   P      96             0.2225030   -0.005537068181

      9   P      97          7423.8610000    0.000067575484
      9   P      98          1759.5170000    0.000590735054
      9   P      99           570.2292000    0.003209920148
      9   P     100           216.5800000    0.012757201241
      9   P     101            90.7342500    0.036296841475
      9   P     102            40.3087900    0.069067055648
      9   P     103            18.5555000    0.055084858236
      9   P     104             8.3965430   -0.092951347783
      9   P     105             3.7673670   -0.256062306212
      9   P     106             1.6297010   -0.211535143443
      9   P     107             0.2225030    0.991664800915

     10   P     108             0.5682630    1.000000000000

     11   P     109             0.0804050    1.000000000000

     12   D     110           321.0196000    0.001738948853
     12   D     111            96.2493100    0.014620594557
     12   D     112            36.6449600    0.064875906626
     12   D     113            15.4939600    0.184323725081
     12   D     114             6.8911380    0.331417629149
     12   D     115             3.0548310    0.389664464481
     12   D     116             1.3142410    0.283997092847

     13   D     117             0.5134300    1.000000000000

     14   D     118             0.1877000    1.000000000000

     15   F     119             0.4158000    1.000000000000

 H         

     16   S     120            33.8700000    0.025494863235
     16   S     121             5.0950000    0.190362765893
     16   S     122             1.1590000    0.852162022245

     17   S     123             0.3258000    1.000000000000

     18   S     124             0.1027000    1.000000000000

     19   P     125             1.4070000    1.000000000000

     20   P     126             0.3880000    1.000000000000

     21   D     127             1.0570000    1.000000000000

 H         

     22   S     128            33.8700000    0.025494863235
     22   S     129             5.0950000    0.190362765893
     22   S     130             1.1590000    0.852162022245

     23   S     131             0.3258000    1.000000000000

     24   S     132             0.1027000    1.000000000000

     25   P     133             1.4070000    1.000000000000

     26   P     134             0.3880000    1.000000000000

     27   D     135             1.0570000    1.000000000000

 H         

     28   S     136            33.8700000    0.025494863235
     28   S     137             5.0950000    0.190362765893
     28   S     138             1.1590000    0.852162022245

     29   S     139             0.3258000    1.000000000000

     30   S     140             0.1027000    1.000000000000

     31   P     141             1.4070000    1.000000000000

     32   P     142             0.3880000    1.000000000000

     33   D     143             1.0570000    1.000000000000

 TOTAL NUMBER OF BASIS SET SHELLS             =   33
 NUMBER OF CARTESIAN GAUSSIAN BASIS FUNCTIONS =   94
 NOTE: THIS RUN WILL RESTRICT THE MO VARIATION SPACE TO SPHERICAL HARMONICS.
 THE NUMBER OF ORBITALS KEPT IN THE VARIATIONAL SPACE WILL BE PRINTED LATER.
 NUMBER OF ELECTRONS                          =   35
 CHARGE OF MOLECULE                           =    1
 SPIN MULTIPLICITY                            =    2
 NUMBER OF OCCUPIED ORBITALS (ALPHA)          =   18
 NUMBER OF OCCUPIED ORBITALS (BETA )          =   17
 TOTAL NUMBER OF ATOMS                        =    4
 THE NUCLEAR REPULSION ENERGY IS       36.3851866875

     $CONTRL OPTIONS
     ---------------
 SCFTYP=MCSCF        RUNTYP=ENERGY       EXETYP=RUN     
 MPLEVL=       2     CITYP =NONE         CCTYP =NONE         VBTYP =NONE    
 DFTTYP=NONE         TDDFT =NONE    
 MULT  =       2     ICHARG=       1     NZVAR =       0     COORD =UNIQUE  
 PP    =NONE         RELWFN=NONE         LOCAL =NONE         NUMGRD=       F
 ISPHER=       1     NOSYM =       1     MAXIT =     200     UNITS =ANGS    
 PLTORB=       F     MOLPLT=       F     AIMPAC=       F     FRIEND=        
 NPRINT=       7     IREST =       0     GEOM  =INPUT   
 NORMF =       0     NORMP =       0     ITOL  =      20     ICUT  =       9
 INTTYP=RYSQUAD      GRDTYP=BEST         QMTTOL= 1.0E-05

     $SYSTEM OPTIONS
     ---------------
  REPLICATED MEMORY=   250000000 WORDS (ON EVERY NODE).
 DISTRIBUTED MEMDDI=        8000 MILLION WORDS IN AGGREGATE,
 MEMDDI DISTRIBUTED OVER   2 PROCESSORS IS  4000000000 WORDS/PROCESSOR.
 TOTAL MEMORY REQUESTED ON EACH PROCESSOR=  4250000000 WORDS.
 TIMLIM=      525600.00 MINUTES, OR     365.0 DAYS.
 PARALL= T  BALTYP=  DLB     KDIAG=    3  COREFL= F
 MXSEQ2=     300 MXSEQ3=     150  mem10=         0

          ----------------
          PROPERTIES INPUT
          ----------------

     MOMENTS            FIELD           POTENTIAL          DENSITY
 IEMOM =       1   IEFLD =       0   IEPOT =       0   IEDEN =       0
 WHERE =COMASS     WHERE =NUCLEI     WHERE =NUCLEI     WHERE =NUCLEI  
 OUTPUT=BOTH       OUTPUT=BOTH       OUTPUT=BOTH       OUTPUT=BOTH    
 IEMINT=       0   IEFINT=       0                     IEDINT=       0
                                                       MORB  =       0

     -------------------------------
     INTEGRAL TRANSFORMATION OPTIONS
     -------------------------------
     NWORD  =            0
     CUTOFF = 1.0E-09     MPTRAN =       0
     DIRTRF =       T     AOINTS =DUP     

          ----------------------
          MCSCF INPUT PARAMETERS
          ----------------------
 CONVERGER SELECTION: FOCAS = F  SOSCF = F  FULLNR = T  QUD = F  JACOBI = F
 SECULAR EQUATION METHOD CISTEP = GMCCI   
 --- GENERAL INPUT OPTIONS:
 MAXIT =     200  MICIT =       1  ACURCY= 1.000E-06
 DAMP  =   0.000  CANONC=       T  ENGTOL= 1.000E-10
 EKT   =       F  NPUNCH=       2  NWORD =         0
 REGENERATE CI AFTER CONVERGENCE = NONE    
 DIABATIZATION AFTER CONVERGENCE =        F
 --- INPUT FOR FULLNR CONVERGER:
 METHOD=DM2       FORS  =       F  DROPC =       T
 LINSER=       F  FCORE =       F  NORB  =      94

          ----------------------
          INTEGRAL INPUT OPTIONS
          ----------------------
 NOPK  =       1 NORDER=       0 SCHWRZ=       T

 ------------------------------------------
 MULTIREFERENCE PERTURBATION THEORY CONTROL
 ------------------------------------------
 MRPT=GMCPT    READ CONVERGED MCSCF VECTORS= F


     ------------------------------------------
     THE POINT GROUP IS C1 , NAXIS= 1, ORDER= 1
     ------------------------------------------

 -- VARIATIONAL SPACE WILL BE RESTRICTED TO PURE SPHERICAL HARMONICS ONLY --
 AFTER EXCLUDING CONTAMINANT COMBINATIONS FROM THE CARTESIAN GAUSSIAN BASIS
 SET, THE NUMBER OF SPHERICAL HARMONICS KEPT IN THE VARIATION SPACE IS   85

     DIMENSIONS OF THE SYMMETRY SUBSPACES ARE
 A   =   85

 ..... DONE SETTING UP THE RUN .....
 CPU     0: STEP CPU TIME=     0.19 TOTAL CPU TIME=          0.2 (      0.0 MIN)
 TOTAL WALL CLOCK TIME=          0.5 SECONDS, CPU UTILIZATION IS    38.78%

          ********************
          1 ELECTRON INTEGRALS
          ********************
 TIME TO DO   DIPOLE INTEGRALS=      0.01
 ...... END OF ONE-ELECTRON INTEGRALS ......
 CPU     0: STEP CPU TIME=     0.01 TOTAL CPU TIME=          0.2 (      0.0 MIN)
 TOTAL WALL CLOCK TIME=          0.5 SECONDS, CPU UTILIZATION IS    38.46%

          -------------
          GUESS OPTIONS
          -------------
          GUESS =MOREAD            NORB  =      85          NORDER=       0
          MIX   =       F          PRTMO =       F          PUNMO =       F
          TOLZ  = 1.0E-08          TOLE  = 1.0E-05
          SYMDEN=       F          PURIFY=       T

 INITIAL GUESS ORBITALS GENERATED BY MOREAD   ROUTINE.

 STATISTICS FOR GENERATION OF SYMMETRY ORBITAL -Q- MATRIX
 NUMBER OF CARTESIAN ATOMIC ORBITALS=         94
 NUMBER OF SPHERICAL CONTAMINANTS DROPPED=     9
 NUMBER OF LINEARLY DEPENDENT MOS DROPPED=     0
 TOTAL NUMBER OF MOS IN VARIATION SPACE=      85
 ORBITAL PURIFICATION WILL OCCUR

 SYMMETRIES FOR INITIAL GUESS ORBITALS FOLLOW.   BOTH SET(S).
    18 ORBITALS ARE OCCUPIED (   14 CORE ORBITALS).
     1=A        2=A        3=A        4=A        5=A        6=A        7=A   
     8=A        9=A       10=A       11=A       12=A       13=A       14=A   
    15=A       16=A       17=A       18=A       19=A       20=A       21=A   
    22=A       23=A       24=A       25=A       26=A       27=A       28=A   
    29=A       30=A       31=A       32=A       33=A       34=A       35=A   
    36=A       37=A       38=A       39=A       40=A       41=A       42=A   
    43=A       44=A       45=A       46=A       47=A       48=A       49=A   
    50=A       51=A       52=A       53=A       54=A       55=A       56=A   
    57=A       58=A       59=A       60=A       61=A       62=A       63=A   
    64=A       65=A       66=A       67=A       68=A       69=A       70=A   
    71=A       72=A       73=A       74=A       75=A       76=A       77=A   
    78=A       79=A       80=A       81=A       82=A       83=A       84=A   
    85=A   
 ...... END OF INITIAL ORBITAL SELECTION ......
 CPU     0: STEP CPU TIME=     0.12 TOTAL CPU TIME=          0.3 (      0.0 MIN)
 TOTAL WALL CLOCK TIME=          0.6 SECONDS, CPU UTILIZATION IS    49.23%

                    ----------------------
                    AO INTEGRAL TECHNOLOGY
                    ----------------------
     S,P,L SHELL ROTATED AXIS INTEGRALS, REPROGRAMMED BY
        KAZUYA ISHIMURA (IMS) AND JOSE SIERRA (SYNSTAR).
     S,P,D,L SHELL ROTATED AXIS INTEGRALS PROGRAMMED BY
        KAZUYA ISHIMURA (INSTITUTE FOR MOLECULAR SCIENCE).
     S,P,D,F,G SHELL TO TOTAL QUARTET ANGULAR MOMENTUM SUM 5,
        ERIC PROGRAM BY GRAHAM FLETCHER (ELORET AND NASA ADVANCED
        SUPERCOMPUTING DIVISION, AMES RESEARCH CENTER).
     S,P,D,F,G,L SHELL GENERAL RYS QUADRATURE PROGRAMMED BY
        MICHEL DUPUIS (PACIFIC NORTHWEST NATIONAL LABORATORY).

          --------------------
          2 ELECTRON INTEGRALS
          --------------------

 DIRECT SCF METHOD SKIPS INTEGRAL STORAGE ON DISK.
 DIRECT TRANSFORMATION SKIPS AO INTEGRAL STORAGE ON DISK.
  ...... END OF TWO-ELECTRON INTEGRALS .....
 STEP CPU TIME =     0.02 TOTAL CPU TIME =          0.3 (      0.0 MIN)
 TOTAL WALL CLOCK TIME=          0.7 SECONDS, CPU UTILIZATION IS    50.00%
 DDI: Creating Array [0] - 8836 x 231 = 2041116 words.
 DDI: Creating Array [1] - 64 x 4851 = 310464 words.
 DDI: Creating Array [2] - 231 x 231 = 53361 words.
 DDI: Creating Array [3] - 4465 x 231 = 1031415 words.

          -----------------
          MCSCF CALCULATION
          -----------------

 ----- NUCLEAR ENERGY ----- =        36.3851866875

     -------------------------------------------------
     GMC-PT/GMC-QDPT or general MCSCF input parameters
     -------------------------------------------------
 # of frozen core orbs. =         5 ->         0
 # of doubly occ. orbs. =         9
 # of active      orbs. =         7
 # of virtual     orbs. =        64
 # of active electrons  =         7
 # of states in CI      =         4
 Highest state in CI    =         4
 kstate =  1 1 1 1
 avecoe =  0.250 0.250 0.250 0.250
 State symmetry           = A           
 Assigned symmetry number = 1

 <<<Act. MO sym.: 1111111

 <<<Division of 1-ext.:  0 0
 <<<Division of 2-ext.:  0 1

 *** Reference space

 Reference type: ORMAS (= Occupation restricted multiple active space)
 # of orbitals          =  7
 # of minimum electrons =  7
 # of maximum electrons =  7
 State symmetry    =    1 (input)
 2*Sz              =    1 (input)
 Spin multiplicity =    2 (input)
 Dimension of reference space =      1225  (from      3432 walks)

 Dimension of reference space =      1225  (from      1225 walks)

 <<<Ionized spaces for Ref-CI:
      0:         1225 /   -1-0:         1960 /  0-1-0:         2891

 EVALUATING EXCHANGE INTEGRALS FOR DIRECT INTEGRAL TRANSFORMATION
 SCHWARZ INEQUALITY OVERHEAD:      4465 INTEGRALS, T=        0.21

     --------------------------------------------
     PARTIAL TWO ELECTRON INTEGRAL TRANSFORMATION
     --------------------------------------------

 NUMBER OF CORE MOLECULAR ORBITALS     =   14
 NUMBER OF OCCUPIED MOLECULAR ORBITALS =   21
 TOTAL NUMBER OF MOLECULAR ORBITALS    =   85
 TOTAL NUMBER OF ATOMIC ORBITALS       =   94
 THRESHOLD FOR KEEPING TRANSFORMED 2E- INTEGRALS = 1.000E-09

 -------------------------------     ------------------------------
 DISTRIBUTED DATA TRANSFORMATION     PROGRAM WRITTEN BY G. FLETCHER
 -------------------------------     ------------------------------

 THE DISTRIBUTED MEMORY REQUIRED FOR THIS STEP IS MEMDDI=         4 MWORDS
 CREATING DISTRIBUTED STORAGE FOR [VIR OCC|VIR OCC] INTEGRALS
 CREATING DISTRIBUTED STORAGE FOR [VIR OCC|OCC OCC] INTEGRALS
 CREATING DISTRIBUTED STORAGE FOR [OCC OCC|OCC OCC] INTEGRALS
 CREATING DISTRIBUTED STORAGE FOR [VIR VIR|OCC OCC] INTEGRALS
 FOR    2 PROCESSORS, THE REPLICATED MEMORY NEEDED IS      615709 WORDS.
 SCHWARZ INEQUALITY OVERHEAD:      4465 INTEGRALS, T=        0.20

      DIRECT 4-INDEX TRANSFORMATION 
      SCHWARZ INEQUALITY TEST SKIPPED       1075 INTEGRAL BLOCKS
 ----- FROZEN CORE ENERGY =     -2258.5584627583
 ... END OF INTEGRAL TRANSFORMATION ...
 CPU     0: STEP CPU TIME=    10.49 TOTAL CPU TIME=         10.8 (      0.2 MIN)
 TOTAL WALL CLOCK TIME=         11.2 SECONDS, CPU UTILIZATION IS    96.44%

     --------------------------------     -----------------------------
     MCHF NEWTON-RAPHSON OPTIMIZATION     CODE WRITTEN BY MICHEL DUPUIS
     --------------------------------     -----------------------------
     PARALLEL VERSION WRITTEN BY G. FLETCHER (ELORET)
     NASA ADVANCED SUPERCOMPUTING DIVISION, AMES RESEARCH CENTER

 NUMBER OF INDEPENDENT ORBITAL ROTATION PARAMETERS =   843
 ..... DONE SOLVING NEWTON-RAPHSON EQUATIONS .....
 CPU     0: STEP CPU TIME=     0.45 TOTAL CPU TIME=         11.3 (      0.2 MIN)
 TOTAL WALL CLOCK TIME=         12.0 SECONDS, CPU UTILIZATION IS    93.84%
 ..... DONE WITH NTN-RPH ORBITAL ROTATIONS ..... 
 CPU     0: STEP CPU TIME=     0.00 TOTAL CPU TIME=         11.3 (      0.2 MIN)
 TOTAL WALL CLOCK TIME=         12.0 SECONDS, CPU UTILIZATION IS    93.84%
 MAXIMUM MEMORY USED BY NTN-RPH CODE WAS    197978 WORDS.

 ITER     TOTAL ENERGY      DEL(E)  LAGRANGIAN ASYMMETRY   SQCDF  MICIT   DAMP
   1    -2235.516956075 -0.516956075  0.000978   60   15 7.300E-06  1   0.0000
   2    -2235.516958842 -0.000002768  0.000081   60   19 2.161E-06  1   0.0000
   3    -2235.516959073 -0.000000230  0.000051   60   19 9.604E-07  1   0.0000
   4    -2235.516959169 -0.000000096  0.000033   60   19 4.468E-07  1   0.0000
   5    -2235.516959212 -0.000000043  0.000021   60   19 2.081E-07  1   0.0000
   6    -2235.516959232 -0.000000019  0.000014   60   19 9.636E-08  1   0.0000
   7    -2235.516959241 -0.000000009  0.000009   60   19 4.429E-08  1   0.0000
   8    -2235.516959245 -0.000000004  0.000006   60   19 2.027E-08  1   0.0000
   9    -2235.516959246 -0.000000002  0.000004   60   19 9.196E-09  1   0.0000
  10    -2235.516959247 -0.000000001  0.000003   60   19 4.223E-09  1   0.0000
  11    -2235.516959248 -0.000000000  0.000002   60   19 1.929E-09  1   0.0000
  12    -2235.516959248 -0.000000000  0.000001   60   19 8.781E-10  1   0.0000
  13    -2235.516959248 -0.000000000  0.000001   60   19 3.990E-10  1   0.0000

          --------------------
          LAGRANGIAN CONVERGED
          --------------------

 FINAL MCSCF ENERGY IS    -2235.5169592478 AFTER  13 ITERATIONS

 -MCCI- BASED ON OPTIMIZED ORBITALS
 ----------------------------------

 PLEASE NOTE: IF THE ACTIVE ORBITALS ARE CANONICALIZED BELOW,
 THE FOLLOWING CI EXPANSION COEFFICIENTS AND THE DENSITY DO NOT
 CORRESPOND TO THE PRINTED ORBITALS.  THE PRINTED EXPANSIONS MATCH
 THE ORBITALS USED DURING THE LAST ITERATION.  IF YOU WISH TO SEE
 CI EXPANSIONS BASED ON THE CANONICAL (OR NATURAL) ORBITALS, YOU
 MUST RUN A CI CALCULATION WITH THAT ORBITAL CHOICE READ IN $VEC.

 Averaged energy =   -2235.516959248

 State #    1  Energy =   -2235.693416363  S =  0.500

      Det      Coef    Occupancy (Ignoring core)
      ---      ----    --------- --------- -----
        1    0.976693  11110001110000
      107   -0.073562  11101000111000
      143    0.060563  11011001100100
      179    0.061050  10111001010100
      393    0.059171  10110101010010
      717    0.058923  11010011100001

 State #    2  Energy =   -2235.481695278  S =  0.500

      Det      Coef    Occupancy (Ignoring core)
      ---      ----    --------- --------- -----
        2    0.951708  11101001110000
      106   -0.172530  11110000111000
      110   -0.057384  01111000111000
      156    0.079732  11100011100100
      181   -0.082039  11100101010100
      212    0.064057  11101000110100
      387   -0.079293  11101001010010
      391   -0.050338  11100101010010
      396    0.060578  10101101010010
      702    0.076226  11101001100001
      720    0.060755  11001011100001

 State #    3  Energy =   -2235.446810932  S =  0.500

      Det      Coef    Occupancy (Ignoring core)
      ---      ----    --------- --------- -----
        6   -0.118292  11100101110000
       38   -0.101728  11011001101000
       71   -0.950198  11110001011000
       74    0.102207  10111001011000
       78    0.092391  10110101011000
      109   -0.056209  10111000111000
      113   -0.050738  10110100111000
      122   -0.050886  11010010111000
      177    0.120411  11101001010100
      248    0.069139  11011001001100
      822    0.052740  11010011001001

 State #    4  Energy =   -2235.445914418  S =  0.500

      Det      Coef    Occupancy (Ignoring core)
      ---      ----    --------- --------- -----
       16   -0.117018  11100011110000
       36    0.950431  11110001101000
       39    0.102280  10111001101000
       52    0.092436  11010011101000
       73    0.101931  11011001011000
      108    0.055847  11011000111000
      112   -0.051141  11010100111000
      123    0.051022  10110010111000
      142   -0.119909  11101001100100
      249    0.069522  10111001001100
      463    0.052949  10110101001010

 DENSITY MATRIX OVER ACTIVE MO-S

             1           2           3           4           5

    1    1.9718958
    2   -0.0005683   1.7201570
    3    0.0000092   0.0000072   1.7205364
    4    0.0000000   0.0000000  -0.0000000   1.2381382
    5    0.0032526   0.0009147  -0.0000149   0.0000000   0.2904888
    6    0.0006674   0.0015646  -0.0000254  -0.0000000   0.0026141
    7   -0.0000116  -0.0000274   0.0002176   0.0000000  -0.0000456

             6           7

    6    0.0296144
    7   -0.0000089   0.0291694

 FORMING THE "STANDARD FOCK OPERATOR" IN DIRECT AO INTEGRAL MODE...
 ONLY THE   14 CORE AND   64 VIRTUAL ORBITALS WILL BE CANONICALIZED

          ----------------------
          MCSCF NATURAL ORBITALS
          ----------------------

                      1          2          3          4          5
                 -432.8954   -56.6209   -50.4654   -50.4653   -50.4653
                     A          A          A          A          A   
    1  AS 1  S    0.999999   0.000003   0.000000   0.000000   0.000000
    2  AS 1  S    0.000001   1.000103   0.000000   0.000000  -0.000000
    3  AS 1  S   -0.000004   0.000135   0.000000   0.000003   0.000000
    4  AS 1  S   -0.000005   0.000143   0.000000   0.000004   0.000000
    5  AS 1  S    0.000016  -0.000426   0.000000  -0.000000   0.000000
    6  AS 1  S    0.000005  -0.000140   0.000000   0.000001   0.000000
    7  AS 1  X    0.000000   0.000001   0.000000   1.000025   0.000936
    8  AS 1  Y    0.000000   0.000000  -0.000000  -0.000936   1.000024
    9  AS 1  Z    0.000000   0.000000   1.000026  -0.000000   0.000000
   10  AS 1  X   -0.000000  -0.000000   0.000000  -0.000002  -0.000000
   11  AS 1  Y   -0.000000  -0.000000  -0.000000   0.000000  -0.000004
   12  AS 1  Z    0.000000   0.000000   0.000001  -0.000000   0.000000
   13  AS 1  X   -0.000000   0.000000   0.000000  -0.000087  -0.000000
   14  AS 1  Y   -0.000000   0.000000  -0.000000   0.000000  -0.000091
   15  AS 1  Z    0.000000   0.000000  -0.000002  -0.000000   0.000000
   16  AS 1  X   -0.000000   0.000000   0.000000  -0.000500  -0.000000
   17  AS 1  Y    0.000000   0.000000   0.000000   0.000000  -0.000501
   18  AS 1  Z    0.000000   0.000000  -0.000447  -0.000000  -0.000000
   19  AS 1  X   -0.000000   0.000000  -0.000000  -0.000090  -0.000000
   20  AS 1  Y    0.000000   0.000000  -0.000000   0.000000  -0.000090
   21  AS 1  Z    0.000000   0.000000  -0.000069  -0.000000  -0.000000
   22  AS 1 XX    0.000000  -0.000000   0.000000   0.000002   0.000000
   23  AS 1 YY    0.000000  -0.000001   0.000000  -0.000002  -0.000000
   24  AS 1 ZZ   -0.000000   0.000001   0.000000   0.000000   0.000000
   25  AS 1 XY    0.000000  -0.000000   0.000000   0.000000  -0.000002
   26  AS 1 XZ    0.000000   0.000000  -0.000000  -0.000000   0.000000
   27  AS 1 YZ    0.000000   0.000000   0.000000  -0.000000   0.000000
   28  AS 1 XX    0.000000  -0.000002   0.000000  -0.000055  -0.000000
   29  AS 1 YY    0.000000  -0.000002   0.000000   0.000055   0.000000
   30  AS 1 ZZ   -0.000000   0.000004   0.000000  -0.000001  -0.000000
   31  AS 1 XY    0.000000  -0.000000   0.000000  -0.000000   0.000065
   32  AS 1 XZ    0.000000   0.000000   0.000000  -0.000000   0.000000
   33  AS 1 YZ   -0.000000  -0.000000   0.000000   0.000000   0.000000
   34  AS 1 XX    0.000000  -0.000002   0.000000  -0.000015  -0.000000
   35  AS 1 YY    0.000000  -0.000002   0.000000   0.000016   0.000000
   36  AS 1 ZZ   -0.000000   0.000004   0.000000  -0.000001  -0.000000
   37  AS 1 XY    0.000000  -0.000000   0.000000  -0.000000   0.000019
   38  AS 1 XZ    0.000000   0.000000   0.000000  -0.000000  -0.000000
   39  AS 1 YZ    0.000000   0.000000   0.000000  -0.000000   0.000000
   40  AS 1 XXX   0.000000  -0.000006   0.000000  -0.000012  -0.000000
   41  AS 1 YYY   0.000000   0.000000  -0.000000   0.000000  -0.000013
   42  AS 1 ZZZ   0.000000   0.000000  -0.000000  -0.000000   0.000000
   43  AS 1 XXY  -0.000000   0.000000   0.000000   0.000000  -0.000006
   44  AS 1 XXZ   0.000000   0.000000   0.000000  -0.000000  -0.000000
   45  AS 1 YYX  -0.000000   0.000008   0.000000  -0.000007  -0.000000
   46  AS 1 YYZ   0.000000   0.000000   0.000000  -0.000000   0.000000
   47  AS 1 ZZX   0.000000  -0.000000   0.000000   0.000023   0.000000
   48  AS 1 ZZY   0.000000  -0.000000   0.000000  -0.000000   0.000024
   49  AS 1 XYZ   0.000000  -0.000000  -0.000000   0.000000   0.000000
   50  H  2  S   -0.000000   0.000006  -0.000000   0.000007  -0.000012
   51  H  2  S   -0.000000   0.000012   0.000000  -0.000036   0.000062
   52  H  2  S   -0.000001   0.000029   0.000000  -0.000024   0.000041
   53  H  2  X   -0.000000   0.000002   0.000000  -0.000005   0.000007
   54  H  2  Y    0.000000  -0.000003   0.000000   0.000007  -0.000013
   55  H  2  Z    0.000000   0.000000   0.000001  -0.000000   0.000000
   56  H  2  X   -0.000000   0.000004   0.000000  -0.000019   0.000031
   57  H  2  Y    0.000000  -0.000008  -0.000000   0.000031  -0.000055
   58  H  2  Z   -0.000000  -0.000000  -0.000005   0.000000   0.000000
   59  H  2 XX    0.000000  -0.000001   0.000000   0.000005  -0.000002
   60  H  2 YY   -0.000000   0.000005   0.000000  -0.000016   0.000021
   61  H  2 ZZ    0.000000  -0.000004   0.000000   0.000011  -0.000019
   62  H  2 XY    0.000000  -0.000006  -0.000000   0.000014  -0.000028
   63  H  2 XZ    0.000000  -0.000000   0.000003   0.000000  -0.000000
   64  H  2 YZ    0.000000   0.000000  -0.000005  -0.000000  -0.000000
   65  H  3  S   -0.000000   0.000006   0.000000   0.000007   0.000012
   66  H  3  S   -0.000000   0.000012  -0.000000  -0.000036  -0.000062
   67  H  3  S   -0.000001   0.000029  -0.000000  -0.000024  -0.000041
   68  H  3  X   -0.000000   0.000002   0.000000  -0.000005  -0.000007
   69  H  3  Y   -0.000000   0.000003   0.000000  -0.000007  -0.000013
   70  H  3  Z    0.000000  -0.000000   0.000001   0.000000   0.000000
   71  H  3  X   -0.000000   0.000004  -0.000000  -0.000019  -0.000031
   72  H  3  Y   -0.000000   0.000008  -0.000000  -0.000031  -0.000055
   73  H  3  Z    0.000000   0.000000  -0.000005  -0.000000   0.000000
   74  H  3 XX    0.000000  -0.000001   0.000000   0.000005   0.000002
   75  H  3 YY   -0.000000   0.000005   0.000000  -0.000016  -0.000021
   76  H  3 ZZ    0.000000  -0.000004   0.000000   0.000011   0.000019
   77  H  3 XY   -0.000000   0.000006  -0.000000  -0.000014  -0.000028
   78  H  3 XZ    0.000000   0.000000   0.000003  -0.000000   0.000000
   79  H  3 YZ    0.000000   0.000000   0.000005  -0.000000   0.000000
   80  H  4  S   -0.000000   0.000006   0.000000  -0.000014  -0.000000
   81  H  4  S   -0.000000   0.000011   0.000000   0.000066   0.000000
   82  H  4  S   -0.000001   0.000029   0.000000   0.000047   0.000000
   83  H  4  X    0.000000  -0.000003   0.000000  -0.000016  -0.000000
   84  H  4  Y    0.000000   0.000000   0.000000   0.000000  -0.000001
   85  H  4  Z    0.000000   0.000000   0.000001  -0.000000   0.000000
   86  H  4  X    0.000000  -0.000009   0.000000  -0.000070  -0.000000
   87  H  4  Y    0.000000   0.000000   0.000000   0.000000  -0.000002
   88  H  4  Z    0.000000   0.000000  -0.000005  -0.000000   0.000000
   89  H  4 XX   -0.000000   0.000008   0.000000   0.000042   0.000000
   90  H  4 YY    0.000000  -0.000004   0.000000  -0.000020  -0.000000
   91  H  4 ZZ    0.000000  -0.000004   0.000000  -0.000022  -0.000000
   92  H  4 XY   -0.000000   0.000000   0.000000   0.000000  -0.000004
   93  H  4 XZ    0.000000   0.000000  -0.000006  -0.000000   0.000000
   94  H  4 YZ   -0.000000  -0.000000   0.000000  -0.000000   0.000000

                      6          7          8          9         10
                   -8.3450    -6.1998    -6.1997    -6.1964    -2.4338
                     A          A          A          A          A   
    1  AS 1  S   -0.000085   0.000000   0.000002   0.000000   0.000000
    2  AS 1  S   -0.000609   0.000000   0.000012   0.000000   0.000000
    3  AS 1  S    0.975257   0.000000   0.000078  -0.000000   0.000000
    4  AS 1  S   -0.001924   0.000000   0.000043  -0.000000   0.000000
    5  AS 1  S    0.036270  -0.000000  -0.000019   0.000000  -0.000000
    6  AS 1  S    0.004132  -0.000000  -0.000011  -0.000000  -0.000000
    7  AS 1  X    0.000001  -0.000000  -0.000106   0.000000  -0.000000
    8  AS 1  Y    0.000000  -0.000105   0.000000  -0.000000  -0.000215
    9  AS 1  Z    0.000000   0.000000  -0.000000   0.000031  -0.000000
   10  AS 1  X   -0.000029   0.000911   0.974390  -0.000000  -0.000001
   11  AS 1  Y   -0.000000   0.974395  -0.000911   0.000000  -0.001014
   12  AS 1  Z    0.000000  -0.000000   0.000000   0.975679  -0.000000
   13  AS 1  X    0.000009  -0.000001  -0.001003   0.000000  -0.000004
   14  AS 1  Y    0.000000  -0.000996   0.000001  -0.000000  -0.004662
   15  AS 1  Z    0.000000   0.000000  -0.000000   0.000431  -0.000000
   16  AS 1  X   -0.000007   0.000045   0.047802  -0.000000   0.000002
   17  AS 1  Y   -0.000000   0.047788  -0.000045   0.000000   0.001866
   18  AS 1  Z    0.000000  -0.000000   0.000000   0.046644   0.000000
   19  AS 1  X   -0.000003   0.000002   0.002069  -0.000000   0.000002
   20  AS 1  Y   -0.000000   0.002067  -0.000002  -0.000000   0.002560
   21  AS 1  Z    0.000000  -0.000000  -0.000000   0.001652  -0.000000
   22  AS 1 XX    0.000320   0.000001   0.000586   0.000000  -0.000783
   23  AS 1 YY    0.000328  -0.000001  -0.000601   0.000000   0.000792
   24  AS 1 ZZ   -0.000647   0.000000   0.000015   0.000000  -0.000010
   25  AS 1 XY    0.000000  -0.000719   0.000001  -0.000000   0.966685
   26  AS 1 XZ    0.000000  -0.000000  -0.000000  -0.000012  -0.000000
   27  AS 1 YZ    0.000000   0.000000  -0.000000  -0.000000  -0.000000
   28  AS 1 XX    0.000052  -0.000000  -0.000332   0.000000  -0.000069
   29  AS 1 YY    0.000049   0.000000   0.000336  -0.000000   0.000069
   30  AS 1 ZZ   -0.000101  -0.000000  -0.000004   0.000000  -0.000001
   31  AS 1 XY   -0.000000   0.000379  -0.000000   0.000000   0.084639
   32  AS 1 XZ    0.000000   0.000000  -0.000000  -0.000007  -0.000000
   33  AS 1 YZ    0.000000  -0.000000   0.000000  -0.000000  -0.000000
   34  AS 1 XX   -0.000015  -0.000000  -0.000213   0.000000  -0.000000
   35  AS 1 YY   -0.000016   0.000000   0.000215  -0.000000   0.000000
   36  AS 1 ZZ    0.000031  -0.000000  -0.000002   0.000000  -0.000000
   37  AS 1 XY   -0.000000   0.000248  -0.000000   0.000000   0.000534
   38  AS 1 XZ    0.000000  -0.000000  -0.000000   0.000003   0.000000
   39  AS 1 YZ    0.000000   0.000000  -0.000000   0.000000   0.000000
   40  AS 1 XXX   0.000049   0.000000   0.000055   0.000000  -0.000000
   41  AS 1 YYY   0.000000   0.000057  -0.000000  -0.000000  -0.000425
   42  AS 1 ZZZ   0.000000   0.000000  -0.000000  -0.000215   0.000000
   43  AS 1 XXY   0.000000   0.000021  -0.000000   0.000000  -0.000224
   44  AS 1 XXZ   0.000000  -0.000000  -0.000000   0.000143   0.000000
   45  AS 1 YYX  -0.000066   0.000000   0.000021   0.000000  -0.000000
   46  AS 1 YYZ   0.000000   0.000000  -0.000000   0.000146  -0.000000
   47  AS 1 ZZX  -0.000001  -0.000000  -0.000095  -0.000000   0.000001
   48  AS 1 ZZY  -0.000000  -0.000097   0.000000   0.000000   0.000794
   49  AS 1 XYZ  -0.000000   0.000000   0.000000   0.000000  -0.000000
   50  H  2  S    0.000002   0.000375  -0.000216  -0.000000  -0.004830
   51  H  2  S    0.000336   0.001728  -0.001010   0.000000  -0.002300
   52  H  2  S   -0.000680  -0.000604   0.000351   0.000000  -0.001482
   53  H  2  X   -0.000003   0.000029   0.000008   0.000000  -0.000511
   54  H  2  Y    0.000005  -0.000026   0.000029   0.000000   0.001341
   55  H  2  Z   -0.000000  -0.000000  -0.000000   0.000011  -0.000000
   56  H  2  X    0.000006   0.000262  -0.000047   0.000000   0.000495
   57  H  2  Y   -0.000010  -0.000348   0.000268  -0.000000   0.000146
   58  H  2  Z   -0.000000  -0.000000   0.000000   0.000124   0.000000
   59  H  2 XX   -0.000004  -0.000053  -0.000000   0.000000   0.000253
   60  H  2 YY    0.000026   0.000135  -0.000048   0.000000  -0.000675
   61  H  2 ZZ   -0.000022  -0.000082   0.000048  -0.000000   0.000422
   62  H  2 XY   -0.000031  -0.000152   0.000109  -0.000000   0.000617
   63  H  2 XZ   -0.000000  -0.000000   0.000000  -0.000017   0.000000
   64  H  2 YZ    0.000000   0.000000  -0.000000   0.000030  -0.000000
   65  H  3  S    0.000002  -0.000375  -0.000216   0.000000   0.004835
   66  H  3  S    0.000336  -0.001730  -0.001007  -0.000000   0.002303
   67  H  3  S   -0.000680   0.000605   0.000350  -0.000000   0.001484
   68  H  3  X   -0.000003  -0.000029   0.000008  -0.000000   0.000512
   69  H  3  Y   -0.000005  -0.000026  -0.000029   0.000000   0.001342
   70  H  3  Z    0.000000   0.000000  -0.000000   0.000011  -0.000000
   71  H  3  X    0.000006  -0.000262  -0.000046  -0.000000  -0.000493
   72  H  3  Y    0.000010  -0.000348  -0.000267  -0.000000   0.000145
   73  H  3  Z    0.000000  -0.000000  -0.000000   0.000124   0.000000
   74  H  3 XX   -0.000004   0.000053  -0.000000  -0.000000  -0.000253
   75  H  3 YY    0.000026  -0.000135  -0.000048  -0.000000   0.000675
   76  H  3 ZZ   -0.000022   0.000082   0.000048   0.000000  -0.000422
   77  H  3 XY    0.000031  -0.000153  -0.000109  -0.000000   0.000618
   78  H  3 XZ    0.000000  -0.000000  -0.000000  -0.000017   0.000000
   79  H  3 YZ    0.000000  -0.000000  -0.000000  -0.000030   0.000000
   80  H  4  S    0.000002   0.000000   0.000423   0.000000  -0.000005
   81  H  4  S    0.000328   0.000002   0.001973  -0.000000  -0.000003
   82  H  4  S   -0.000672  -0.000001  -0.000691   0.000000  -0.000002
   83  H  4  X    0.000010  -0.000000  -0.000026   0.000000   0.000001
   84  H  4  Y   -0.000000   0.000024  -0.000000   0.000000   0.000440
   85  H  4  Z    0.000000   0.000000  -0.000000   0.000011   0.000000
   86  H  4  X   -0.000010  -0.000000  -0.000500   0.000000  -0.000000
   87  H  4  Y   -0.000000   0.000108  -0.000000  -0.000000   0.001012
   88  H  4  Z    0.000000   0.000000   0.000000   0.000123   0.000000
   89  H  4 XX    0.000036   0.000000   0.000215   0.000000  -0.000001
   90  H  4 YY   -0.000017  -0.000000  -0.000129   0.000000   0.000001
   91  H  4 ZZ   -0.000020  -0.000000  -0.000086   0.000000   0.000000
   92  H  4 XY   -0.000000   0.000035  -0.000000   0.000000  -0.000305
   93  H  4 XZ    0.000000  -0.000000  -0.000000   0.000035   0.000000
   94  H  4 YZ    0.000000   0.000000  -0.000000  -0.000000   0.000000

                     11         12         13         14         15
                   -2.4337    -2.4296    -2.4287    -2.4287     1.9719
                     A          A          A          A          A   
    1  AS 1  S    0.000002  -0.000096  -0.000000  -0.000000   0.000443
    2  AS 1  S    0.000016  -0.000644  -0.000000  -0.000000   0.002664
    3  AS 1  S    0.000043  -0.001509  -0.000000  -0.000000   0.004365
    4  AS 1  S    0.000003  -0.003269  -0.000000  -0.000000   0.556857
    5  AS 1  S   -0.000060   0.000597   0.000000   0.000000   0.235462
    6  AS 1  S   -0.000040   0.003474  -0.000000  -0.000000   0.130888
    7  AS 1  X   -0.000218   0.000001   0.000000   0.000000   0.000036
    8  AS 1  Y    0.000000   0.000000   0.000000  -0.000000   0.000000
    9  AS 1  Z    0.000000  -0.000000   0.000003   0.000000  -0.000000
   10  AS 1  X   -0.001095  -0.000008   0.000000   0.000000   0.000461
   11  AS 1  Y    0.000001  -0.000000   0.000000  -0.000000   0.000001
   12  AS 1  Z    0.000000  -0.000000   0.000039   0.000000  -0.000000
   13  AS 1  X   -0.004666   0.000030   0.000000   0.000000  -0.000524
   14  AS 1  Y    0.000004   0.000000   0.000000  -0.000000  -0.000001
   15  AS 1  Z    0.000000  -0.000000  -0.000001  -0.000000   0.000000
   16  AS 1  X    0.001916   0.000005  -0.000000  -0.000000  -0.000536
   17  AS 1  Y   -0.000002   0.000000  -0.000000   0.000000  -0.000001
   18  AS 1  Z   -0.000000  -0.000000  -0.000040  -0.000000   0.000000
   19  AS 1  X    0.002563   0.000010   0.000000   0.000000   0.000031
   20  AS 1  Y   -0.000002   0.000000   0.000000  -0.000000   0.000000
   21  AS 1  Z    0.000000  -0.000000  -0.000010  -0.000000   0.000000
   22  AS 1 XX   -0.835423  -0.487108   0.000000   0.000000  -0.014099
   23  AS 1 YY    0.838940  -0.480976   0.000000  -0.000000  -0.014542
   24  AS 1 ZZ   -0.003517   0.968083  -0.000000   0.000000   0.028641
   25  AS 1 XY   -0.000909   0.000007   0.000000   0.000000  -0.000000
   26  AS 1 XZ    0.000000   0.000000   0.968383   0.001023   0.000000
   27  AS 1 YZ    0.000000  -0.000000  -0.001023   0.968374   0.000000
   28  AS 1 XX   -0.073143  -0.041364   0.000000   0.000000   0.008307
   29  AS 1 YY    0.073456  -0.040858  -0.000000  -0.000000   0.008605
   30  AS 1 ZZ   -0.000313   0.082222  -0.000000   0.000000  -0.016912
   31  AS 1 XY   -0.000080   0.000001   0.000000   0.000000   0.000000
   32  AS 1 XZ   -0.000000   0.000000   0.082206   0.000087   0.000000
   33  AS 1 YZ    0.000000  -0.000000  -0.000087   0.082219  -0.000000
   34  AS 1 XX   -0.000431  -0.000651   0.000000   0.000000   0.004370
   35  AS 1 YY    0.000450  -0.000693  -0.000000  -0.000000   0.004365
   36  AS 1 ZZ   -0.000019   0.001344   0.000000   0.000000  -0.008735
   37  AS 1 XY   -0.000000  -0.000000  -0.000000   0.000000  -0.000000
   38  AS 1 XZ    0.000000  -0.000000   0.000961   0.000001   0.000000
   39  AS 1 YZ   -0.000000  -0.000000  -0.000001   0.000963  -0.000000
   40  AS 1 XXX  -0.000413  -0.001006  -0.000000  -0.000000   0.013435
   41  AS 1 YYY   0.000000   0.000000   0.000000  -0.000000  -0.000000
   42  AS 1 ZZZ   0.000000  -0.000000   0.000009   0.000000   0.000000
   43  AS 1 XXY   0.000000   0.000000   0.000000  -0.000000  -0.000000
   44  AS 1 XXZ  -0.000000  -0.000000   0.000220   0.000000   0.000000
   45  AS 1 YYX  -0.000228   0.001368   0.000000   0.000000  -0.018086
   46  AS 1 YYZ   0.000000  -0.000000  -0.000232  -0.000000   0.000000
   47  AS 1 ZZX   0.000782  -0.000019  -0.000000  -0.000000   0.000062
   48  AS 1 ZZY  -0.000001  -0.000000  -0.000000   0.000000   0.000000
   49  AS 1 XYZ  -0.000000   0.000000   0.000000  -0.000285  -0.000000
   50  H  2  S    0.002796  -0.002829   0.000000  -0.000000   0.074897
   51  H  2  S    0.001312  -0.000877  -0.000000   0.000000   0.107977
   52  H  2  S    0.000865  -0.000350  -0.000000   0.000000   0.010129
   53  H  2  X    0.000752  -0.000448  -0.000000  -0.000000   0.003513
   54  H  2  Y   -0.000513   0.000777  -0.000000   0.000000  -0.006089
   55  H  2  Z    0.000000  -0.000000  -0.000225   0.000389  -0.000000
   56  H  2  X    0.000726   0.000074  -0.000000   0.000000   0.006368
   57  H  2  Y    0.000509  -0.000117   0.000000  -0.000000  -0.011069
   58  H  2  Z   -0.000000   0.000000  -0.000578   0.000992   0.000000
   59  H  2 XX    0.000128  -0.000015   0.000000  -0.000000   0.000009
   60  H  2 YY    0.000118  -0.000389  -0.000000   0.000000   0.001587
   61  H  2 ZZ   -0.000246   0.000404   0.000000  -0.000000  -0.001596
   62  H  2 XY   -0.000540   0.000372   0.000000  -0.000000  -0.001562
   63  H  2 XZ   -0.000000   0.000000  -0.000030   0.000230  -0.000000
   64  H  2 YZ    0.000000  -0.000000   0.000230  -0.000293   0.000000
   65  H  3  S    0.002787  -0.002829  -0.000000  -0.000000   0.074899
   66  H  3  S    0.001307  -0.000877   0.000000   0.000000   0.107979
   67  H  3  S    0.000862  -0.000350   0.000000   0.000000   0.010129
   68  H  3  X    0.000751  -0.000448   0.000000  -0.000000   0.003513
   69  H  3  Y    0.000511  -0.000777  -0.000000  -0.000000   0.006089
   70  H  3  Z    0.000000   0.000000  -0.000225  -0.000390   0.000000
   71  H  3  X    0.000727   0.000074   0.000000   0.000000   0.006368
   72  H  3  Y   -0.000509   0.000117   0.000000   0.000000   0.011069
   73  H  3  Z    0.000000  -0.000000  -0.000576  -0.000993  -0.000000
   74  H  3 XX    0.000128  -0.000015  -0.000000  -0.000000   0.000009
   75  H  3 YY    0.000117  -0.000389   0.000000   0.000000   0.001587
   76  H  3 ZZ   -0.000245   0.000404  -0.000000  -0.000000  -0.001596
   77  H  3 XY    0.000539  -0.000372   0.000000   0.000000   0.001563
   78  H  3 XZ   -0.000000  -0.000000  -0.000029  -0.000230   0.000000
   79  H  3 YZ    0.000000  -0.000000  -0.000230  -0.000293   0.000000
   80  H  4  S   -0.005447  -0.002782   0.000000   0.000000   0.073785
   81  H  4  S   -0.002700  -0.000948  -0.000000  -0.000000   0.106880
   82  H  4  S   -0.001721  -0.000365  -0.000000  -0.000000   0.010149
   83  H  4  X    0.001576   0.000872  -0.000000  -0.000000  -0.006902
   84  H  4  Y   -0.000000   0.000000  -0.000000   0.000000  -0.000000
   85  H  4  Z   -0.000000  -0.000000   0.000432   0.000000   0.000000
   86  H  4  X   -0.000116  -0.000109   0.000000   0.000000  -0.012637
   87  H  4  Y   -0.000001   0.000000  -0.000000   0.000000  -0.000000
   88  H  4  Z   -0.000000  -0.000000   0.001144   0.000001   0.000000
   89  H  4 XX   -0.001014  -0.000564  -0.000000  -0.000000   0.002318
   90  H  4 YY    0.000543   0.000167   0.000000   0.000000  -0.000751
   91  H  4 ZZ    0.000471   0.000397   0.000000   0.000000  -0.001567
   92  H  4 XY    0.000000  -0.000000   0.000000   0.000000   0.000000
   93  H  4 XZ    0.000000  -0.000000  -0.000409  -0.000000   0.000000
   94  H  4 YZ    0.000000  -0.000000  -0.000000   0.000102   0.000000

                     16         17         18         19         20
                    1.7205     1.7202     1.2381     0.2905     0.0296
                     A          A          A          A          A   
    1  AS 1  S    0.000000   0.000015  -0.000000   0.001257  -0.000159
    2  AS 1  S    0.000000   0.000102  -0.000000   0.009554  -0.001107
    3  AS 1  S    0.000001   0.000412  -0.000000   0.063196  -0.004920
    4  AS 1  S    0.000005   0.001699  -0.000000   0.491244  -0.012543
    5  AS 1  S    0.000002   0.000547  -0.000000   0.249890  -0.005203
    6  AS 1  S    0.000005   0.001637  -0.000000   0.661180   0.000246
    7  AS 1  X   -0.000004  -0.003973  -0.000000   0.000016   0.014103
    8  AS 1  Y   -0.004030   0.000004   0.000000   0.000000  -0.000014
    9  AS 1  Z   -0.000000  -0.000000  -0.000249   0.000000  -0.000000
   10  AS 1  X   -0.000048  -0.052948  -0.000000   0.000345   0.190544
   11  AS 1  Y   -0.053634   0.000048   0.000000   0.000001  -0.000184
   12  AS 1  Z   -0.000000   0.000000  -0.001190   0.000000  -0.000000
   13  AS 1  X    0.000327   0.364458   0.000000   0.007255   0.976905
   14  AS 1  Y    0.363903  -0.000328   0.000000   0.000013  -0.000941
   15  AS 1  Z    0.000000  -0.000000   0.613183   0.000000  -0.000000
   16  AS 1  X    0.000150   0.166929  -0.000000   0.002725   0.263549
   17  AS 1  Y    0.167257  -0.000150  -0.000000   0.000005  -0.000254
   18  AS 1  Z    0.000000  -0.000000   0.226753   0.000000   0.000000
   19  AS 1  X    0.000059   0.066255  -0.000000   0.005024   0.211962
   20  AS 1  Y    0.065601  -0.000060  -0.000000   0.000009  -0.000204
   21  AS 1  Z   -0.000000  -0.000000   0.294904   0.000000   0.000000
   22  AS 1 XX   -0.000048  -0.053312  -0.000000   0.058668   0.102796
   23  AS 1 YY    0.000049   0.053530   0.000000   0.057159  -0.104829
   24  AS 1 ZZ   -0.000001  -0.000218  -0.000000  -0.115827   0.002032
   25  AS 1 XY    0.062216  -0.000055   0.000000  -0.000002   0.000115
   26  AS 1 XZ   -0.000000  -0.000000   0.000073   0.000000  -0.000000
   27  AS 1 YZ   -0.000000   0.000000   0.000000   0.000000  -0.000000
   28  AS 1 XX    0.000025   0.028155  -0.000000  -0.048418  -0.059961
   29  AS 1 YY   -0.000026  -0.028269  -0.000000  -0.047418   0.061326
   30  AS 1 ZZ    0.000000   0.000113  -0.000000   0.095836  -0.001365
   31  AS 1 XY   -0.032840   0.000029  -0.000000   0.000001  -0.000067
   32  AS 1 XZ    0.000000  -0.000000  -0.000008   0.000000   0.000000
   33  AS 1 YZ   -0.000000   0.000000  -0.000000  -0.000000   0.000000
   34  AS 1 XX    0.000019   0.021168  -0.000000  -0.093886   0.041111
   35  AS 1 YY   -0.000019  -0.021222  -0.000000  -0.091148  -0.040415
   36  AS 1 ZZ    0.000000   0.000054  -0.000000   0.185034  -0.000696
   37  AS 1 XY   -0.024523   0.000022  -0.000000   0.000003   0.000045
   38  AS 1 XZ    0.000000  -0.000000   0.000094   0.000000   0.000000
   39  AS 1 YZ   -0.000000   0.000000   0.000000  -0.000000   0.000000
   40  AS 1 XXX   0.000007   0.007720  -0.000000  -0.044165  -0.005483
   41  AS 1 YYY   0.007815  -0.000007   0.000000  -0.000000   0.000006
   42  AS 1 ZZZ  -0.000000  -0.000000  -0.014266   0.000000  -0.000000
   43  AS 1 XXY   0.003537  -0.000003  -0.000000  -0.000000   0.000002
   44  AS 1 XXZ  -0.000000  -0.000000   0.009570   0.000000   0.000000
   45  AS 1 YYX   0.000003   0.003607  -0.000000   0.059010  -0.003987
   46  AS 1 YYZ   0.000000  -0.000000   0.009570   0.000000   0.000000
   47  AS 1 ZZX  -0.000013  -0.013964  -0.000000   0.000243   0.011344
   48  AS 1 ZZY  -0.014022   0.000013   0.000000   0.000000  -0.000011
   49  AS 1 XYZ  -0.000000   0.000000  -0.000000   0.000000  -0.000000
   50  H  2  S    0.140797  -0.081281   0.000000  -0.138512   0.136632
   51  H  2  S    0.246371  -0.142220  -0.000000  -0.323331   0.388701
   52  H  2  S    0.069990  -0.040662  -0.000000  -0.299898   0.033748
   53  H  2  X    0.005832  -0.001395   0.000000   0.000638   0.008189
   54  H  2  Y   -0.008136   0.005817  -0.000000  -0.000951  -0.001763
   55  H  2  Z   -0.000000  -0.000000   0.004550  -0.000000   0.000000
   56  H  2  X    0.014251  -0.002467  -0.000000  -0.000017   0.062261
   57  H  2  Y   -0.018987   0.014200  -0.000000   0.000619  -0.042085
   58  H  2  Z    0.000000  -0.000000   0.023171   0.000000  -0.000000
   59  H  2 XX    0.000223   0.001447  -0.000000  -0.000437   0.003727
   60  H  2 YY    0.001704  -0.002560  -0.000000  -0.000065   0.000361
   61  H  2 ZZ   -0.001927   0.001113   0.000000   0.000502  -0.004088
   62  H  2 XY   -0.003318   0.000856  -0.000000  -0.000454  -0.007234
   63  H  2 XZ   -0.000000  -0.000000   0.001331   0.000000   0.000000
   64  H  2 YZ    0.000000  -0.000000  -0.002304  -0.000000  -0.000000
   65  H  3  S   -0.140944  -0.081028  -0.000000  -0.138507   0.136189
   66  H  3  S   -0.246625  -0.141777   0.000000  -0.323316   0.387430
   67  H  3  S   -0.070063  -0.040535   0.000000  -0.299882   0.033630
   68  H  3  X   -0.005834  -0.001385  -0.000000   0.000638   0.008186
   69  H  3  Y   -0.008146  -0.005803   0.000000   0.000951   0.001744
   70  H  3  Z   -0.000000  -0.000000   0.004551   0.000000  -0.000000
   71  H  3  X   -0.014256  -0.002441   0.000000  -0.000017   0.062184
   72  H  3  Y   -0.019012  -0.014166  -0.000000  -0.000618   0.041874
   73  H  3  Z    0.000000   0.000000   0.023171  -0.000000   0.000000
   74  H  3 XX   -0.000220   0.001447   0.000000  -0.000437   0.003733
   75  H  3 YY   -0.001709  -0.002557   0.000000  -0.000065   0.000343
   76  H  3 ZZ    0.001929   0.001110  -0.000000   0.000502  -0.004075
   77  H  3 XY   -0.003320  -0.000850  -0.000000   0.000453   0.007222
   78  H  3 XZ   -0.000000  -0.000000   0.001331  -0.000000  -0.000000
   79  H  3 YZ   -0.000000  -0.000000   0.002304  -0.000000  -0.000000
   80  H  4  S    0.000146   0.162045  -0.000000  -0.141023  -0.262383
   81  H  4  S    0.000257   0.284836  -0.000000  -0.330606  -0.754873
   82  H  4  S    0.000073   0.081210  -0.000000  -0.307797  -0.072456
   83  H  4  X   -0.000010  -0.011414  -0.000000  -0.001225   0.010340
   84  H  4  Y    0.001915  -0.000002  -0.000000   0.000000  -0.000007
   85  H  4  Z   -0.000000  -0.000000   0.004478   0.000000   0.000000
   86  H  4  X   -0.000025  -0.027328  -0.000000   0.000836   0.131462
   87  H  4  Y    0.005654  -0.000005   0.000000   0.000001  -0.000036
   88  H  4  Z    0.000000  -0.000000   0.023081   0.000000   0.000000
   89  H  4 XX    0.000004   0.004421  -0.000000   0.000246  -0.012780
   90  H  4 YY   -0.000002  -0.002186  -0.000000  -0.000707   0.005012
   91  H  4 ZZ   -0.000002  -0.002235  -0.000000   0.000461   0.007767
   92  H  4 XY   -0.001787   0.000002  -0.000000  -0.000000   0.000006
   93  H  4 XZ   -0.000000  -0.000000  -0.002648   0.000000   0.000000
   94  H  4 YZ   -0.000000  -0.000000   0.000000   0.000000   0.000000

                     21
                    0.0292
                     A   
    1  AS 1  S   -0.000000
    2  AS 1  S   -0.000003
    3  AS 1  S   -0.000014
    4  AS 1  S   -0.000035
    5  AS 1  S   -0.000015
    6  AS 1  S    0.000001
    7  AS 1  X    0.000014
    8  AS 1  Y    0.014374
    9  AS 1  Z   -0.000000
   10  AS 1  X    0.000187
   11  AS 1  Y    0.193936
   12  AS 1  Z    0.000000
   13  AS 1  X    0.000946
   14  AS 1  Y    0.983704
   15  AS 1  Z    0.000000
   16  AS 1  X    0.000254
   17  AS 1  Y    0.264243
   18  AS 1  Z   -0.000000
   19  AS 1  X    0.000203
   20  AS 1  Y    0.211034
   21  AS 1  Z    0.000000
   22  AS 1 XX    0.000098
   23  AS 1 YY   -0.000103
   24  AS 1 ZZ    0.000006
   25  AS 1 XY   -0.120780
   26  AS 1 XZ   -0.000000
   27  AS 1 YZ    0.000000
   28  AS 1 XX   -0.000056
   29  AS 1 YY    0.000060
   30  AS 1 ZZ   -0.000004
   31  AS 1 XY    0.069820
   32  AS 1 XZ    0.000000
   33  AS 1 YZ   -0.000000
   34  AS 1 XX    0.000041
   35  AS 1 YY   -0.000040
   36  AS 1 ZZ   -0.000002
   37  AS 1 XY   -0.048679
   38  AS 1 XZ   -0.000000
   39  AS 1 YZ   -0.000000
   40  AS 1 XXX  -0.000004
   41  AS 1 YYY  -0.006272
   42  AS 1 ZZZ  -0.000000
   43  AS 1 XXY  -0.002595
   44  AS 1 XXZ   0.000000
   45  AS 1 YYX  -0.000006
   46  AS 1 YYZ   0.000000
   47  AS 1 ZZX   0.000011
   48  AS 1 ZZY   0.011010
   49  AS 1 XYZ  -0.000000
   50  H  2  S   -0.231503
   51  H  2  S   -0.663881
   52  H  2  S   -0.059440
   53  H  2  X   -0.001608
   54  H  2  Y    0.010087
   55  H  2  Z   -0.000000
   56  H  2  X   -0.041464
   57  H  2  Y    0.110736
   58  H  2  Z   -0.000000
   59  H  2 XX    0.002839
   60  H  2 YY   -0.009777
   61  H  2 ZZ    0.006938
   62  H  2 XY    0.006400
   63  H  2 XZ   -0.000000
   64  H  2 YZ    0.000000
   65  H  3  S    0.231780
   66  H  3  S    0.664658
   67  H  3  S    0.059497
   68  H  3  X    0.001624
   69  H  3  Y    0.010092
   70  H  3  Z   -0.000000
   71  H  3  X    0.041587
   72  H  3  Y    0.110822
   73  H  3  Z   -0.000000
   74  H  3 XX   -0.002832
   75  H  3 YY    0.009778
   76  H  3 ZZ   -0.006946
   77  H  3 XY    0.006414
   78  H  3 XZ   -0.000000
   79  H  3 YZ   -0.000000
   80  H  4  S   -0.000248
   81  H  4  S   -0.000718
   82  H  4  S   -0.000071
   83  H  4  X    0.000010
   84  H  4  Y    0.007090
   85  H  4  Z    0.000000
   86  H  4  X    0.000126
   87  H  4  Y    0.037982
   88  H  4  Z   -0.000000
   89  H  4 XX   -0.000012
   90  H  4 YY    0.000005
   91  H  4 ZZ    0.000007
   92  H  4 XY   -0.006140
   93  H  4 XZ    0.000000
   94  H  4 YZ   -0.000000

          ------------------------
          MCSCF OPTIMIZED ORBITALS
          ------------------------

                      1          2          3          4          5
                 -432.8954   -56.6209   -50.4654   -50.4653   -50.4653
                     A          A          A          A          A   
    1  AS 1  S    0.999999   0.000003   0.000000   0.000000   0.000000
    2  AS 1  S    0.000001   1.000103   0.000000   0.000000  -0.000000
    3  AS 1  S   -0.000004   0.000135   0.000000   0.000003   0.000000
    4  AS 1  S   -0.000005   0.000143   0.000000   0.000004   0.000000
    5  AS 1  S    0.000016  -0.000426   0.000000  -0.000000   0.000000
    6  AS 1  S    0.000005  -0.000140   0.000000   0.000001   0.000000
    7  AS 1  X    0.000000   0.000001   0.000000   1.000025   0.000936
    8  AS 1  Y    0.000000   0.000000  -0.000000  -0.000936   1.000024
    9  AS 1  Z    0.000000   0.000000   1.000026  -0.000000   0.000000
   10  AS 1  X   -0.000000  -0.000000   0.000000  -0.000002  -0.000000
   11  AS 1  Y   -0.000000  -0.000000  -0.000000   0.000000  -0.000004
   12  AS 1  Z    0.000000   0.000000   0.000001  -0.000000   0.000000
   13  AS 1  X   -0.000000   0.000000   0.000000  -0.000087  -0.000000
   14  AS 1  Y   -0.000000   0.000000  -0.000000   0.000000  -0.000091
   15  AS 1  Z    0.000000   0.000000  -0.000002  -0.000000   0.000000
   16  AS 1  X   -0.000000   0.000000   0.000000  -0.000500  -0.000000
   17  AS 1  Y    0.000000   0.000000   0.000000   0.000000  -0.000501
   18  AS 1  Z    0.000000   0.000000  -0.000447  -0.000000  -0.000000
   19  AS 1  X   -0.000000   0.000000  -0.000000  -0.000090  -0.000000
   20  AS 1  Y    0.000000   0.000000  -0.000000   0.000000  -0.000090
   21  AS 1  Z    0.000000   0.000000  -0.000069  -0.000000  -0.000000
   22  AS 1 XX    0.000000  -0.000000   0.000000   0.000002   0.000000
   23  AS 1 YY    0.000000  -0.000001   0.000000  -0.000002  -0.000000
   24  AS 1 ZZ   -0.000000   0.000001   0.000000   0.000000   0.000000
   25  AS 1 XY    0.000000  -0.000000   0.000000   0.000000  -0.000002
   26  AS 1 XZ    0.000000   0.000000  -0.000000  -0.000000   0.000000
   27  AS 1 YZ    0.000000   0.000000   0.000000  -0.000000   0.000000
   28  AS 1 XX    0.000000  -0.000002   0.000000  -0.000055  -0.000000
   29  AS 1 YY    0.000000  -0.000002   0.000000   0.000055   0.000000
   30  AS 1 ZZ   -0.000000   0.000004   0.000000  -0.000001  -0.000000
   31  AS 1 XY    0.000000  -0.000000   0.000000  -0.000000   0.000065
   32  AS 1 XZ    0.000000   0.000000   0.000000  -0.000000   0.000000
   33  AS 1 YZ   -0.000000  -0.000000   0.000000   0.000000   0.000000
   34  AS 1 XX    0.000000  -0.000002   0.000000  -0.000015  -0.000000
   35  AS 1 YY    0.000000  -0.000002   0.000000   0.000016   0.000000
   36  AS 1 ZZ   -0.000000   0.000004   0.000000  -0.000001  -0.000000
   37  AS 1 XY    0.000000  -0.000000   0.000000  -0.000000   0.000019
   38  AS 1 XZ    0.000000   0.000000   0.000000  -0.000000  -0.000000
   39  AS 1 YZ    0.000000   0.000000   0.000000  -0.000000   0.000000
   40  AS 1 XXX   0.000000  -0.000006   0.000000  -0.000012  -0.000000
   41  AS 1 YYY   0.000000   0.000000  -0.000000   0.000000  -0.000013
   42  AS 1 ZZZ   0.000000   0.000000  -0.000000  -0.000000   0.000000
   43  AS 1 XXY  -0.000000   0.000000   0.000000   0.000000  -0.000006
   44  AS 1 XXZ   0.000000   0.000000   0.000000  -0.000000  -0.000000
   45  AS 1 YYX  -0.000000   0.000008   0.000000  -0.000007  -0.000000
   46  AS 1 YYZ   0.000000   0.000000   0.000000  -0.000000   0.000000
   47  AS 1 ZZX   0.000000  -0.000000   0.000000   0.000023   0.000000
   48  AS 1 ZZY   0.000000  -0.000000   0.000000  -0.000000   0.000024
   49  AS 1 XYZ   0.000000  -0.000000  -0.000000   0.000000   0.000000
   50  H  2  S   -0.000000   0.000006  -0.000000   0.000007  -0.000012
   51  H  2  S   -0.000000   0.000012   0.000000  -0.000036   0.000062
   52  H  2  S   -0.000001   0.000029   0.000000  -0.000024   0.000041
   53  H  2  X   -0.000000   0.000002   0.000000  -0.000005   0.000007
   54  H  2  Y    0.000000  -0.000003   0.000000   0.000007  -0.000013
   55  H  2  Z    0.000000   0.000000   0.000001  -0.000000   0.000000
   56  H  2  X   -0.000000   0.000004   0.000000  -0.000019   0.000031
   57  H  2  Y    0.000000  -0.000008  -0.000000   0.000031  -0.000055
   58  H  2  Z   -0.000000  -0.000000  -0.000005   0.000000   0.000000
   59  H  2 XX    0.000000  -0.000001   0.000000   0.000005  -0.000002
   60  H  2 YY   -0.000000   0.000005   0.000000  -0.000016   0.000021
   61  H  2 ZZ    0.000000  -0.000004   0.000000   0.000011  -0.000019
   62  H  2 XY    0.000000  -0.000006  -0.000000   0.000014  -0.000028
   63  H  2 XZ    0.000000  -0.000000   0.000003   0.000000  -0.000000
   64  H  2 YZ    0.000000   0.000000  -0.000005  -0.000000  -0.000000
   65  H  3  S   -0.000000   0.000006   0.000000   0.000007   0.000012
   66  H  3  S   -0.000000   0.000012  -0.000000  -0.000036  -0.000062
   67  H  3  S   -0.000001   0.000029  -0.000000  -0.000024  -0.000041
   68  H  3  X   -0.000000   0.000002   0.000000  -0.000005  -0.000007
   69  H  3  Y   -0.000000   0.000003   0.000000  -0.000007  -0.000013
   70  H  3  Z    0.000000  -0.000000   0.000001   0.000000   0.000000
   71  H  3  X   -0.000000   0.000004  -0.000000  -0.000019  -0.000031
   72  H  3  Y   -0.000000   0.000008  -0.000000  -0.000031  -0.000055
   73  H  3  Z    0.000000   0.000000  -0.000005  -0.000000   0.000000
   74  H  3 XX    0.000000  -0.000001   0.000000   0.000005   0.000002
   75  H  3 YY   -0.000000   0.000005   0.000000  -0.000016  -0.000021
   76  H  3 ZZ    0.000000  -0.000004   0.000000   0.000011   0.000019
   77  H  3 XY   -0.000000   0.000006  -0.000000  -0.000014  -0.000028
   78  H  3 XZ    0.000000   0.000000   0.000003  -0.000000   0.000000
   79  H  3 YZ    0.000000   0.000000   0.000005  -0.000000   0.000000
   80  H  4  S   -0.000000   0.000006   0.000000  -0.000014  -0.000000
   81  H  4  S   -0.000000   0.000011   0.000000   0.000066   0.000000
   82  H  4  S   -0.000001   0.000029   0.000000   0.000047   0.000000
   83  H  4  X    0.000000  -0.000003   0.000000  -0.000016  -0.000000
   84  H  4  Y    0.000000   0.000000   0.000000   0.000000  -0.000001
   85  H  4  Z    0.000000   0.000000   0.000001  -0.000000   0.000000
   86  H  4  X    0.000000  -0.000009   0.000000  -0.000070  -0.000000
   87  H  4  Y    0.000000   0.000000   0.000000   0.000000  -0.000002
   88  H  4  Z    0.000000   0.000000  -0.000005  -0.000000   0.000000
   89  H  4 XX   -0.000000   0.000008   0.000000   0.000042   0.000000
   90  H  4 YY    0.000000  -0.000004   0.000000  -0.000020  -0.000000
   91  H  4 ZZ    0.000000  -0.000004   0.000000  -0.000022  -0.000000
   92  H  4 XY   -0.000000   0.000000   0.000000   0.000000  -0.000004
   93  H  4 XZ    0.000000   0.000000  -0.000006  -0.000000   0.000000
   94  H  4 YZ   -0.000000  -0.000000   0.000000  -0.000000   0.000000

                      6          7          8          9         10
                   -8.3450    -6.1998    -6.1997    -6.1964    -2.4338
                     A          A          A          A          A   
    1  AS 1  S   -0.000085   0.000000   0.000002   0.000000   0.000000
    2  AS 1  S   -0.000609   0.000000   0.000012   0.000000   0.000000
    3  AS 1  S    0.975257   0.000000   0.000078  -0.000000   0.000000
    4  AS 1  S   -0.001924   0.000000   0.000043  -0.000000   0.000000
    5  AS 1  S    0.036270  -0.000000  -0.000019   0.000000  -0.000000
    6  AS 1  S    0.004132  -0.000000  -0.000011  -0.000000  -0.000000
    7  AS 1  X    0.000001  -0.000000  -0.000106   0.000000  -0.000000
    8  AS 1  Y    0.000000  -0.000105   0.000000  -0.000000  -0.000215
    9  AS 1  Z    0.000000   0.000000  -0.000000   0.000031  -0.000000
   10  AS 1  X   -0.000029   0.000911   0.974390  -0.000000  -0.000001
   11  AS 1  Y   -0.000000   0.974395  -0.000911   0.000000  -0.001014
   12  AS 1  Z    0.000000  -0.000000   0.000000   0.975679  -0.000000
   13  AS 1  X    0.000009  -0.000001  -0.001003   0.000000  -0.000004
   14  AS 1  Y    0.000000  -0.000996   0.000001  -0.000000  -0.004662
   15  AS 1  Z    0.000000   0.000000  -0.000000   0.000431  -0.000000
   16  AS 1  X   -0.000007   0.000045   0.047802  -0.000000   0.000002
   17  AS 1  Y   -0.000000   0.047788  -0.000045   0.000000   0.001866
   18  AS 1  Z    0.000000  -0.000000   0.000000   0.046644   0.000000
   19  AS 1  X   -0.000003   0.000002   0.002069  -0.000000   0.000002
   20  AS 1  Y   -0.000000   0.002067  -0.000002  -0.000000   0.002560
   21  AS 1  Z    0.000000  -0.000000  -0.000000   0.001652  -0.000000
   22  AS 1 XX    0.000320   0.000001   0.000586   0.000000  -0.000783
   23  AS 1 YY    0.000328  -0.000001  -0.000601   0.000000   0.000792
   24  AS 1 ZZ   -0.000647   0.000000   0.000015   0.000000  -0.000010
   25  AS 1 XY    0.000000  -0.000719   0.000001  -0.000000   0.966685
   26  AS 1 XZ    0.000000  -0.000000  -0.000000  -0.000012  -0.000000
   27  AS 1 YZ    0.000000   0.000000  -0.000000  -0.000000  -0.000000
   28  AS 1 XX    0.000052  -0.000000  -0.000332   0.000000  -0.000069
   29  AS 1 YY    0.000049   0.000000   0.000336  -0.000000   0.000069
   30  AS 1 ZZ   -0.000101  -0.000000  -0.000004   0.000000  -0.000001
   31  AS 1 XY   -0.000000   0.000379  -0.000000   0.000000   0.084639
   32  AS 1 XZ    0.000000   0.000000  -0.000000  -0.000007  -0.000000
   33  AS 1 YZ    0.000000  -0.000000   0.000000  -0.000000  -0.000000
   34  AS 1 XX   -0.000015  -0.000000  -0.000213   0.000000  -0.000000
   35  AS 1 YY   -0.000016   0.000000   0.000215  -0.000000   0.000000
   36  AS 1 ZZ    0.000031  -0.000000  -0.000002   0.000000  -0.000000
   37  AS 1 XY   -0.000000   0.000248  -0.000000   0.000000   0.000534
   38  AS 1 XZ    0.000000  -0.000000  -0.000000   0.000003   0.000000
   39  AS 1 YZ    0.000000   0.000000  -0.000000   0.000000   0.000000
   40  AS 1 XXX   0.000049   0.000000   0.000055   0.000000  -0.000000
   41  AS 1 YYY   0.000000   0.000057  -0.000000  -0.000000  -0.000425
   42  AS 1 ZZZ   0.000000   0.000000  -0.000000  -0.000215   0.000000
   43  AS 1 XXY   0.000000   0.000021  -0.000000   0.000000  -0.000224
   44  AS 1 XXZ   0.000000  -0.000000  -0.000000   0.000143   0.000000
   45  AS 1 YYX  -0.000066   0.000000   0.000021   0.000000  -0.000000
   46  AS 1 YYZ   0.000000   0.000000  -0.000000   0.000146  -0.000000
   47  AS 1 ZZX  -0.000001  -0.000000  -0.000095  -0.000000   0.000001
   48  AS 1 ZZY  -0.000000  -0.000097   0.000000   0.000000   0.000794
   49  AS 1 XYZ  -0.000000   0.000000   0.000000   0.000000  -0.000000
   50  H  2  S    0.000002   0.000375  -0.000216  -0.000000  -0.004830
   51  H  2  S    0.000336   0.001728  -0.001010   0.000000  -0.002300
   52  H  2  S   -0.000680  -0.000604   0.000351   0.000000  -0.001482
   53  H  2  X   -0.000003   0.000029   0.000008   0.000000  -0.000511
   54  H  2  Y    0.000005  -0.000026   0.000029   0.000000   0.001341
   55  H  2  Z   -0.000000  -0.000000  -0.000000   0.000011  -0.000000
   56  H  2  X    0.000006   0.000262  -0.000047   0.000000   0.000495
   57  H  2  Y   -0.000010  -0.000348   0.000268  -0.000000   0.000146
   58  H  2  Z   -0.000000  -0.000000   0.000000   0.000124   0.000000
   59  H  2 XX   -0.000004  -0.000053  -0.000000   0.000000   0.000253
   60  H  2 YY    0.000026   0.000135  -0.000048   0.000000  -0.000675
   61  H  2 ZZ   -0.000022  -0.000082   0.000048  -0.000000   0.000422
   62  H  2 XY   -0.000031  -0.000152   0.000109  -0.000000   0.000617
   63  H  2 XZ   -0.000000  -0.000000   0.000000  -0.000017   0.000000
   64  H  2 YZ    0.000000   0.000000  -0.000000   0.000030  -0.000000
   65  H  3  S    0.000002  -0.000375  -0.000216   0.000000   0.004835
   66  H  3  S    0.000336  -0.001730  -0.001007  -0.000000   0.002303
   67  H  3  S   -0.000680   0.000605   0.000350  -0.000000   0.001484
   68  H  3  X   -0.000003  -0.000029   0.000008  -0.000000   0.000512
   69  H  3  Y   -0.000005  -0.000026  -0.000029   0.000000   0.001342
   70  H  3  Z    0.000000   0.000000  -0.000000   0.000011  -0.000000
   71  H  3  X    0.000006  -0.000262  -0.000046  -0.000000  -0.000493
   72  H  3  Y    0.000010  -0.000348  -0.000267  -0.000000   0.000145
   73  H  3  Z    0.000000  -0.000000  -0.000000   0.000124   0.000000
   74  H  3 XX   -0.000004   0.000053  -0.000000  -0.000000  -0.000253
   75  H  3 YY    0.000026  -0.000135  -0.000048  -0.000000   0.000675
   76  H  3 ZZ   -0.000022   0.000082   0.000048   0.000000  -0.000422
   77  H  3 XY    0.000031  -0.000153  -0.000109  -0.000000   0.000618
   78  H  3 XZ    0.000000  -0.000000  -0.000000  -0.000017   0.000000
   79  H  3 YZ    0.000000  -0.000000  -0.000000  -0.000030   0.000000
   80  H  4  S    0.000002   0.000000   0.000423   0.000000  -0.000005
   81  H  4  S    0.000328   0.000002   0.001973  -0.000000  -0.000003
   82  H  4  S   -0.000672  -0.000001  -0.000691   0.000000  -0.000002
   83  H  4  X    0.000010  -0.000000  -0.000026   0.000000   0.000001
   84  H  4  Y   -0.000000   0.000024  -0.000000   0.000000   0.000440
   85  H  4  Z    0.000000   0.000000  -0.000000   0.000011   0.000000
   86  H  4  X   -0.000010  -0.000000  -0.000500   0.000000  -0.000000
   87  H  4  Y   -0.000000   0.000108  -0.000000  -0.000000   0.001012
   88  H  4  Z    0.000000   0.000000   0.000000   0.000123   0.000000
   89  H  4 XX    0.000036   0.000000   0.000215   0.000000  -0.000001
   90  H  4 YY   -0.000017  -0.000000  -0.000129   0.000000   0.000001
   91  H  4 ZZ   -0.000020  -0.000000  -0.000086   0.000000   0.000000
[...]
       89    0.021703    0.021703  -+2200+

 State #    4  Energy =   -2235.693361567

      Det      Coef        Coefp    Occupancy (Ignoring core)
      ---      ----        ----    --------- --------- -----
       71    0.950367   -0.950367  2+22000
      177   -0.120415    0.120415  2+20200
        6    0.118454   -0.118454  22200+0
       74   -0.102593    0.102593  2022+00
       38    0.101360   -0.101360  2202+00
       78   -0.092947    0.092947  20220+0
      248   -0.069233    0.069233  2+02200
      109    0.056172   -0.056172  +-22+00
      822   -0.052762    0.052762  2+02002
      113    0.050921   -0.050921  +-220+0
      122   -0.050819   -0.050819  +2-200+
       42   -0.043266    0.043266  22020+0
       75   -0.039836   -0.039836  -+22+00
      810    0.039525    0.039525  -++2+0-
       53   -0.036243   -0.036243  2-+200+
      332    0.032323   -0.032323  ++-2-0+
      526   -0.030456   -0.030456  ++220-0
      841    0.029099   -0.029099  +2+200-
      878   -0.029036   -0.029036  ++-2+0-
      458    0.027336   -0.027336  2+02+-0
      809   -0.027332    0.027332  20+2+0-
      323   -0.025838    0.025838  +022-+0
      320   -0.025721   -0.025721  0+22200
      264   -0.025599    0.025599  -++2-0+
      534   -0.025498   -0.025498  0+22020
      894   -0.025362   -0.025362  0+22002
      263    0.024405    0.024405  20+2-0+
      252   -0.024278   -0.024278  2+02-+0
      806    0.024159    0.024159  2++200-
      462   -0.022399    0.022399  2+02020
      529    0.021919    0.021919  +022+-0
       54    0.021720   -0.021720  -2+200+
       79   -0.020466   -0.020466  -+220+0

 ---------------------------------------
      - DIABATIC STATES IN CMO -        
 ---------------------------------------

 State #    1  Energy =   -2235.921738762

      Det      Coef        Coefp    Occupancy (Ignoring core)
      ---      ----        ----    --------- --------- -----
        1   -0.976693    0.976693  222+000
      107    0.073553   -0.073553  +22-+00
      179    0.061758    0.061758  202+200
      143    0.059861    0.059861  220+200
      717    0.058919    0.058919  220+002
      393    0.058470    0.058470  202+020
      211   -0.038240   -0.038240  +22+-00
        5   -0.035313   -0.035313  -22++00
       76    0.033600    0.033600  2+2-0+0
       51    0.033377   -0.033377  22+-00+
      227    0.032651    0.032651  +2-+-0+
      353   -0.032504   -0.032504  220++-0
      218    0.032475   -0.032475  +-2+-+0
      389    0.032468    0.032468  202++-0
      704   -0.031707    0.031707  2-+++0-
      738    0.031518    0.031518  2+-++0-
      147    0.030405   -0.030405  220+-+0
      183   -0.030380    0.030380  202+-+0
      215    0.029792    0.029792  022+200
      192   -0.029562    0.029562  2+-+-0+
      158    0.029438    0.029438  2-++-0+
      705    0.028516    0.028516  -2+++0-
      390    0.028322   -0.028322  -+2++-0
      742   -0.026961   -0.026961  2+-+0+-
      368   -0.026946   -0.026946  2-++0-+
       17   -0.026211   -0.026211  22-+00+
        8   -0.026124    0.026124  2-2+0+0
      773   -0.025855    0.025855  +2-++0-
      424   -0.025668   -0.025668  +-2++-0
      159   -0.024383    0.024383  -2++-0+
      184   -0.024192   -0.024192  -+2+-+0
      357    0.022762    0.022762  220+020
      753    0.021965    0.021965  202+002
      429    0.021575    0.021575  022+020
      789    0.021548    0.021548  022+002

 State #    2  Energy =   -2235.728742722

      Det      Coef        Coefp    Occupancy (Ignoring core)
      ---      ----        ----    --------- --------- -----
        2   -0.951846    0.951846  2220+00
      106   -0.172522   -0.172522  +222000
      181   -0.082372   -0.082372  2+20-+0
      156   -0.079366    0.079366  22+0-0+
      387    0.079329   -0.079329  2+20+-0
      702    0.076165    0.076165  22+0+0-
      212    0.064045    0.064045  +220200
      720    0.060694    0.060694  2200+02
      396    0.060349    0.060349  2020+20
      110    0.057396   -0.057396  0222+00
      366    0.050437   -0.050437  22+00-+
      706   -0.050055   -0.050055  22+00+-
      751   -0.049502    0.049502  2+20002
      391    0.048478   -0.048478  2+20020
       74    0.031283   -0.031283  2022+00
       38    0.031253   -0.031253  2202+00
      186   -0.028269    0.028269  20202+0
      150    0.028210   -0.028210  22002+0
      195   -0.027721    0.027721  2+-020+
      161    0.027440    0.027440  2-+020+
      745   -0.026507   -0.026507  2+-0++-
      371   -0.026461   -0.026461  2-+0+-+
      360    0.026324    0.026324  2200+20
      756    0.025706    0.025706  2020+02
      230    0.022114    0.022114  +2-020+
      221    0.021967   -0.021967  +-202+0
      162   -0.021163    0.021163  -2+020+
      187   -0.021036   -0.021036  -+202+0

 State #    3  Energy =   -2235.692449718

      Det      Coef        Coefp    Occupancy (Ignoring core)
      ---      ----        ----    --------- --------- -----
       36    0.950552    0.950552  22+2000
      142   -0.119614   -0.119614  22+0200
       16    0.117009   -0.117009  222000+
       39    0.101458    0.101458  2-+2+00
       73   -0.101379    0.101379  2+-2+00
       52   -0.092097    0.092097  220200+
      249   -0.070174    0.070174  20+2200
      108    0.055640    0.055640  +2-2+00
      463   -0.052355    0.052355  20+2020
      112   -0.051933   -0.051933  +2-20+0
      123   -0.051230    0.051230  +-2200+
       88   -0.043418    0.043418  202200+
       40   -0.039722    0.039722  -2+2+00
      460   -0.039450   -0.039450  -++2+-0
       77    0.037426   -0.037426  2+-20+0
      288   -0.032191   -0.032191  +-+2-+0
      491    0.029708   -0.029708  +2+20-0
      876    0.029277    0.029277  ++2200-
      494    0.028849   -0.028849  +-+2+-0
      459   -0.027745    0.027745  20+2+-0
      808   -0.027051    0.027051  2+02+0-
      297   -0.025906    0.025906  +202-0+
      285   -0.025611    0.025611  02+2200
      499   -0.025535    0.025535  02+2020
      254    0.025533   -0.025533  -++2-+0
      859   -0.025441    0.025441  02+2002
      253    0.024692    0.024692  20+2-+0
      262    0.024164    0.024164  2+02-0+
      456   -0.024023   -0.024023  2++20-0
      823   -0.022477    0.022477  20+2002
       44    0.022225   -0.022225  -2+20+0
       89    0.021953    0.021953  -+2200+
      843    0.021864    0.021864  +202+0-

 State #    4  Energy =   -2235.693361567

      Det      Coef        Coefp    Occupancy (Ignoring core)
      ---      ----        ----    --------- --------- -----
       71    0.950198   -0.950198  2+22000
      177   -0.120737    0.120737  2+20200
        6    0.118446   -0.118446  22200+0
       74   -0.104614    0.104614  2022+00
       38    0.100905   -0.100905  2202+00
       78   -0.092026    0.092026  20220+0
      248   -0.068499    0.068499  2+02200
      109    0.056401   -0.056401  +-22+00
      822   -0.052769    0.052769  2+02002
      122   -0.050940   -0.050940  +2-200+
      113    0.049796   -0.049796  +-220+0
       42   -0.044633    0.044633  22020+0
       75   -0.039674   -0.039674  -+22+00
      810    0.039672    0.039672  -++2+0-
       53   -0.036145   -0.036145  2-+200+
      332    0.032309   -0.032309  ++-2-0+
      878   -0.029046   -0.029046  ++-2+0-
      841    0.029035   -0.029035  +2+200-
      526   -0.028954   -0.028954  ++220-0
      458    0.028003   -0.028003  2+02+-0
      809   -0.027007    0.027007  20+2+0-
      323   -0.025867    0.025867  +022-+0
      320   -0.025805   -0.025805  0+22200
      264   -0.025714    0.025714  -++2-0+
      534   -0.025393   -0.025393  0+22020
      894   -0.025367   -0.025367  0+22002
      252   -0.024900   -0.024900  2+02-+0
      806    0.024476    0.024476  2++200-
      263    0.024049    0.024049  20+2-0+
      462   -0.023095    0.023095  2+02020
       54    0.021904   -0.021904  -2+200+
      529    0.021815    0.021815  +022+-0
       79   -0.020842   -0.020842  -+220+0

 ---------------------------------------
    -DIABATIC STATES IN PROTOTYPES-     
 ---------------------------------------

     STATE:    1
 Group Ref#    Coefficients
     1    1    0.999078
     2    2   -0.000000
     3    3   -0.000000
     4    4   -0.000000

WEIGHT OF LISTED PROTOTYPES:   99.82%

     STATE:    2
 Group Ref#    Coefficients
     1    1    0.000000
     2    2    0.997519
     3    3   -0.000004
     4    4   -0.000032

WEIGHT OF LISTED PROTOTYPES:   99.50%

     STATE:    3
 Group Ref#    Coefficients
     1    1   -0.000000
     2    2   -0.000004
     3    3    0.997778
     4    4    0.000001

WEIGHT OF LISTED PROTOTYPES:   99.56%

     STATE:    4
 Group Ref#    Coefficients
     1    1   -0.000000
     2    2   -0.000032
     3    3    0.000001
     4    4    0.997738

WEIGHT OF LISTED PROTOTYPES:   99.55%

     DIRECT MAX. DIABATIZATION FINISHED    
 CPU     0: STEP CPU TIME=     0.49 TOTAL CPU TIME=        174.4 (      2.9 MIN)
 TOTAL WALL CLOCK TIME=        234.3 SECONDS, CPU UTILIZATION IS    74.45%

DIABATS FOR SPIN-ORBIT CALCULATION ARE READY

TRANSITION DIPOLES BETWEEN ADIABATS (in A.U.):

STATE PAIR      X         Y         Z
    1    1  0.009494  0.000018 -0.000000
    2    1  0.000000  0.000000 -0.466855
    2    2  0.024505  0.000045 -0.000000
    3    1 -0.000000  0.000000 -0.008328
    3    2  0.170190 -0.000158 -0.000000
    3    3 -0.409992 -0.000762 -0.000000
    4    1 -0.000000 -0.000000  0.000023
    4    2 -0.000153 -0.162790  0.000000
    4    3  0.000782 -0.417576 -0.000000
    4    4  0.427164  0.000793 -0.000000


TRANSITION DIPOLES BETWEEN DIABATS (in A.U.):

STATE PAIR      X         Y         Z
    1    1  0.009494  0.000018 -0.000000
    2    1 -0.000000 -0.000000  0.466917
    2    2  0.028069  0.000055 -0.000000
    3    1 -0.000000 -0.000000 -0.000054
    3    2 -0.002713  0.167191 -0.000000
    3    3  0.426939 -0.013650 -0.000000
    4    1  0.000000 -0.000000  0.003371
    4    2  0.165517  0.002752 -0.000000
    4    3  0.013798  0.415600  0.000000
    4    4 -0.413331  0.013672 -0.000000

TRANSITION DIPOLES BETWEEN DIRECT MAX. DIABATS (in A.U.):

STATE PAIR      X         Y         Z
    1    1  0.009494  0.000018 -0.000000
    2    1 -0.000000 -0.000000  0.466917
    2    2  0.028069  0.000055 -0.000000
    3    1 -0.000000 -0.000000 -0.000054
    3    2 -0.002713  0.167191 -0.000000
    3    3  0.426939 -0.013650 -0.000000
    4    1  0.000000 -0.000000  0.003371
    4    2  0.165517  0.002752 -0.000000
    4    3  0.013798  0.415600  0.000000
    4    4 -0.413331  0.013672 -0.000000
 No $TRANST Group Found.
 Quit without doing spin-orbit coupling
 ..... DONE WITH MP2 ENERGY .....
 CPU     0: STEP CPU TIME=     0.00 TOTAL CPU TIME=        174.4 (      2.9 MIN)
 TOTAL WALL CLOCK TIME=        234.3 SECONDS, CPU UTILIZATION IS    74.44%
            250000000  WORDS OF DYNAMIC MEMORY USED
 EXECUTION OF GAMESS TERMINATED NORMALLY Mon Dec  4 10:32:42 2023
 DDI: 14063448 bytes (13.4 MB / 1 MWords) used by master data server.
Note: The following floating-point exceptions are signalling: IEEE_DENORMAL

 ----------------------------------------
 CPU timing information for all processes
 ========================================
 0: 173.971 + 0.483 = 174.455
 1: 173.115 + 0.329 = 173.445
 ----------------------------------------
Note: The following floating-point exceptions are signalling: IEEE_DENORMAL
 ddikick.x: exited gracefully.
unset echo
----- accounting info -----
Files used on the master node io003 were:
-rw-r--r-- 1 bjb2chen nooijen  144603 Dec  4 10:28 /home/bjb2chen/gmsscr//AsH3cat_cct_gmcpt_C1_3st_diab_mode12_+0.05.F05
-rw-r--r-- 1 bjb2chen nooijen 2366136 Dec  4 10:32 /home/bjb2chen/gmsscr//AsH3cat_cct_gmcpt_C1_3st_diab_mode12_+0.05.F09
-rw-r--r-- 1 bjb2chen nooijen 3600320 Dec  4 10:32 /home/bjb2chen/gmsscr//AsH3cat_cct_gmcpt_C1_3st_diab_mode12_+0.05.F09.001
-rw-r--r-- 1 bjb2chen nooijen 3010240 Dec  4 10:32 /home/bjb2chen/gmsscr//AsH3cat_cct_gmcpt_C1_3st_diab_mode12_+0.05.F10
-rw-r--r-- 1 bjb2chen nooijen  685648 Dec  4 10:32 /home/bjb2chen/gmsscr//AsH3cat_cct_gmcpt_C1_3st_diab_mode12_+0.05.F13
-rw-r--r-- 1 bjb2chen nooijen  685648 Dec  4 10:32 /home/bjb2chen/gmsscr//AsH3cat_cct_gmcpt_C1_3st_diab_mode12_+0.05.F13.001
-rw-r--r-- 1 bjb2chen nooijen  181872 Dec  4 10:32 /home/bjb2chen/gmsscr//AsH3cat_cct_gmcpt_C1_3st_diab_mode12_+0.05.F15
-rw-r--r-- 1 bjb2chen nooijen       0 Dec  4 10:28 /home/bjb2chen/gmsscr//AsH3cat_cct_gmcpt_C1_3st_diab_mode12_+0.05.F16
-rw-r--r-- 1 bjb2chen nooijen    9808 Dec  4 10:32 /home/bjb2chen/gmsscr//AsH3cat_cct_gmcpt_C1_3st_diab_mode12_+0.05.F70
-rw-r--r-- 1 bjb2chen nooijen    9808 Dec  4 10:32 /home/bjb2chen/gmsscr//AsH3cat_cct_gmcpt_C1_3st_diab_mode12_+0.05.F70.001
-rw-r--r-- 1 bjb2chen nooijen    9808 Dec  4 10:32 /home/bjb2chen/gmsscr//AsH3cat_cct_gmcpt_C1_3st_diab_mode12_+0.05.F71
-rw-r--r-- 1 bjb2chen nooijen    9808 Dec  4 10:32 /home/bjb2chen/gmsscr//AsH3cat_cct_gmcpt_C1_3st_diab_mode12_+0.05.F71.001
-rw-r--r-- 1 bjb2chen nooijen   19608 Dec  4 10:32 /home/bjb2chen/gmsscr//AsH3cat_cct_gmcpt_C1_3st_diab_mode12_+0.05.F72
-rw-r--r-- 1 bjb2chen nooijen   19608 Dec  4 10:32 /home/bjb2chen/gmsscr//AsH3cat_cct_gmcpt_C1_3st_diab_mode12_+0.05.F72.001
-rw-r--r-- 1 bjb2chen nooijen   19608 Dec  4 10:32 /home/bjb2chen/gmsscr//AsH3cat_cct_gmcpt_C1_3st_diab_mode12_+0.05.F73
-rw-r--r-- 1 bjb2chen nooijen   19608 Dec  4 10:32 /home/bjb2chen/gmsscr//AsH3cat_cct_gmcpt_C1_3st_diab_mode12_+0.05.F73.001
-rw-r--r-- 1 bjb2chen nooijen  961208 Dec  4 10:32 /home/bjb2chen/gmsscr//AsH3cat_cct_gmcpt_C1_3st_diab_mode12_+0.05.F74
-rw-r--r-- 1 bjb2chen nooijen  959640 Dec  4 10:32 /home/bjb2chen/gmsscr//AsH3cat_cct_gmcpt_C1_3st_diab_mode12_+0.05.F74.001
-rw-r--r-- 1 bjb2chen nooijen       0 Dec  4 10:28 /home/bjb2chen/gmsscr//AsH3cat_cct_gmcpt_C1_3st_diab_mode12_+0.05.F75
-rw-r--r-- 1 bjb2chen nooijen       0 Dec  4 10:28 /home/bjb2chen/gmsscr//AsH3cat_cct_gmcpt_C1_3st_diab_mode12_+0.05.F75.001
-rw-r--r-- 1 bjb2chen nooijen   78456 Dec  4 10:32 /home/bjb2chen/gmsscr//AsH3cat_cct_gmcpt_C1_3st_diab_mode12_+0.05.F76
-rw-r--r-- 1 bjb2chen nooijen   78456 Dec  4 10:32 /home/bjb2chen/gmsscr//AsH3cat_cct_gmcpt_C1_3st_diab_mode12_+0.05.F76.001
-rw-r--r-- 1 bjb2chen nooijen       0 Dec  4 10:28 /home/bjb2chen/gmsscr//AsH3cat_cct_gmcpt_C1_3st_diab_mode12_+0.05.F77
-rw-r--r-- 1 bjb2chen nooijen       0 Dec  4 10:28 /home/bjb2chen/gmsscr//AsH3cat_cct_gmcpt_C1_3st_diab_mode12_+0.05.F77.001
-rw-r--r-- 1 bjb2chen nooijen    6408 Dec  4 10:32 /home/bjb2chen/gmsscr//AsH3cat_cct_gmcpt_C1_3st_diab_mode12_+0.05.F78
-rw-r--r-- 1 bjb2chen nooijen    6408 Dec  4 10:32 /home/bjb2chen/gmsscr//AsH3cat_cct_gmcpt_C1_3st_diab_mode12_+0.05.F78.001
-rw-r--r-- 1 bjb2chen nooijen   49008 Dec  4 10:32 /home/bjb2chen/gmsscr//AsH3cat_cct_gmcpt_C1_3st_diab_mode12_+0.05.F79
-rw-r--r-- 1 bjb2chen nooijen   49008 Dec  4 10:32 /home/bjb2chen/gmsscr//AsH3cat_cct_gmcpt_C1_3st_diab_mode12_+0.05.F79.001
-rw-r--r-- 1 bjb2chen nooijen     168 Dec  4 10:32 /home/bjb2chen/gmsscr//AsH3cat_cct_gmcpt_C1_3st_diab_mode12_+0.05.F80
-rw-r--r-- 1 bjb2chen nooijen     168 Dec  4 10:32 /home/bjb2chen/gmsscr//AsH3cat_cct_gmcpt_C1_3st_diab_mode12_+0.05.F80.001
-rw-r--r-- 1 bjb2chen nooijen  102416 Dec  4 10:32 /home/bjb2chen/gmsscr//AsH3cat_cct_gmcpt_C1_3st_diab_mode12_+0.05.F81
-rw-r--r-- 1 bjb2chen nooijen  102416 Dec  4 10:32 /home/bjb2chen/gmsscr//AsH3cat_cct_gmcpt_C1_3st_diab_mode12_+0.05.F81.001
-rw-r--r-- 1 bjb2chen nooijen     656 Dec  4 10:32 /home/bjb2chen/gmsscr//AsH3cat_cct_gmcpt_C1_3st_diab_mode12_+0.05.F82
-rw-r--r-- 1 bjb2chen nooijen     656 Dec  4 10:32 /home/bjb2chen/gmsscr//AsH3cat_cct_gmcpt_C1_3st_diab_mode12_+0.05.F82.001
-rw-r--r-- 1 bjb2chen nooijen   19216 Dec  4 10:32 /home/bjb2chen/gmsscr//AsH3cat_cct_gmcpt_C1_3st_diab_mode12_+0.05.F83
-rw-r--r-- 1 bjb2chen nooijen   19216 Dec  4 10:32 /home/bjb2chen/gmsscr//AsH3cat_cct_gmcpt_C1_3st_diab_mode12_+0.05.F83.001
-rw-r--r-- 1 bjb2chen nooijen  327696 Dec  4 10:32 /home/bjb2chen/gmsscr//AsH3cat_cct_gmcpt_C1_3st_diab_mode12_+0.05.F84
-rw-r--r-- 1 bjb2chen nooijen  327696 Dec  4 10:32 /home/bjb2chen/gmsscr//AsH3cat_cct_gmcpt_C1_3st_diab_mode12_+0.05.F84.001
-rw-r--r-- 1 bjb2chen nooijen 2146856 Dec  4 10:32 /home/bjb2chen/gmsscr//AsH3cat_cct_gmcpt_C1_3st_diab_mode12_+0.05.F85
-rw-r--r-- 1 bjb2chen nooijen 2146856 Dec  4 10:32 /home/bjb2chen/gmsscr//AsH3cat_cct_gmcpt_C1_3st_diab_mode12_+0.05.F85.001
-rw-r--r-- 1 bjb2chen nooijen 8421312 Dec  4 10:32 /home/bjb2chen/gmsscr//AsH3cat_cct_gmcpt_C1_3st_diab_mode12_+0.05.F86
-rw-r--r-- 1 bjb2chen nooijen 8451712 Dec  4 10:32 /home/bjb2chen/gmsscr//AsH3cat_cct_gmcpt_C1_3st_diab_mode12_+0.05.F86.001
-rw-r--r-- 1 bjb2chen nooijen    1160 Dec  4 10:32 /home/bjb2chen/gmsscr//AsH3cat_cct_gmcpt_C1_3st_diab_mode12_+0.05.F87
-rw-r--r-- 1 bjb2chen nooijen    1160 Dec  4 10:32 /home/bjb2chen/gmsscr//AsH3cat_cct_gmcpt_C1_3st_diab_mode12_+0.05.F87.001
-rw-r--r-- 1 bjb2chen nooijen   22368 Dec  4 10:32 /home/bjb2chen/gmsscr//AsH3cat_cct_gmcpt_C1_3st_diab_mode12_+0.05.F88
-rw-r--r-- 1 bjb2chen nooijen   22368 Dec  4 10:32 /home/bjb2chen/gmsscr//AsH3cat_cct_gmcpt_C1_3st_diab_mode12_+0.05.F88.001
-rw-r--r-- 1 bjb2chen nooijen     648 Dec  4 10:32 /home/bjb2chen/gmsscr//AsH3cat_cct_gmcpt_C1_3st_diab_mode12_+0.05.F89
-rw-r--r-- 1 bjb2chen nooijen     648 Dec  4 10:32 /home/bjb2chen/gmsscr//AsH3cat_cct_gmcpt_C1_3st_diab_mode12_+0.05.F89.001
-rw-r--r-- 1 bjb2chen nooijen       0 Dec  4 10:28 /home/bjb2chen/gmsscr//AsH3cat_cct_gmcpt_C1_3st_diab_mode12_+0.05.F90
-rw-r--r-- 1 bjb2chen nooijen       0 Dec  4 10:28 /home/bjb2chen/gmsscr//AsH3cat_cct_gmcpt_C1_3st_diab_mode12_+0.05.F90.001
-rw-r--r-- 1 bjb2chen nooijen   13760 Dec  4 10:32 /home/bjb2chen/gmsscr//AsH3cat_cct_gmcpt_C1_3st_diab_mode12_+0.05.F91
-rw-r--r-- 1 bjb2chen nooijen   13760 Dec  4 10:32 /home/bjb2chen/gmsscr//AsH3cat_cct_gmcpt_C1_3st_diab_mode12_+0.05.F91.001
-rw-r--r-- 1 bjb2chen nooijen   22776 Dec  4 10:32 /home/bjb2chen/gmsscr//AsH3cat_cct_gmcpt_C1_3st_diab_mode12_+0.05.F92
-rw-r--r-- 1 bjb2chen nooijen   22776 Dec  4 10:32 /home/bjb2chen/gmsscr//AsH3cat_cct_gmcpt_C1_3st_diab_mode12_+0.05.F92.001
-rw-r--r-- 1 bjb2chen nooijen   23168 Dec  4 10:32 /home/bjb2chen/gmsscr//AsH3cat_cct_gmcpt_C1_3st_diab_mode12_+0.05.F93
-rw-r--r-- 1 bjb2chen nooijen   23168 Dec  4 10:32 /home/bjb2chen/gmsscr//AsH3cat_cct_gmcpt_C1_3st_diab_mode12_+0.05.F93.001
-rw-r--r-- 1 bjb2chen nooijen   22776 Dec  4 10:32 /home/bjb2chen/gmsscr//AsH3cat_cct_gmcpt_C1_3st_diab_mode12_+0.05.F94
-rw-r--r-- 1 bjb2chen nooijen   22776 Dec  4 10:32 /home/bjb2chen/gmsscr//AsH3cat_cct_gmcpt_C1_3st_diab_mode12_+0.05.F94.001
-rw-r--r-- 1 bjb2chen nooijen   13760 Dec  4 10:32 /home/bjb2chen/gmsscr//AsH3cat_cct_gmcpt_C1_3st_diab_mode12_+0.05.F95
-rw-r--r-- 1 bjb2chen nooijen   13760 Dec  4 10:32 /home/bjb2chen/gmsscr//AsH3cat_cct_gmcpt_C1_3st_diab_mode12_+0.05.F95.001
-rw-r--r-- 1 bjb2chen nooijen   39248 Dec  4 10:32 /home/bjb2chen/gmsscr//AsH3cat_cct_gmcpt_C1_3st_diab_mode12_+0.05.F96
-rw-r--r-- 1 bjb2chen nooijen   39248 Dec  4 10:32 /home/bjb2chen/gmsscr//AsH3cat_cct_gmcpt_C1_3st_diab_mode12_+0.05.F96.001
-rw-r--r-- 1 bjb2chen nooijen    1184 Dec  4 10:32 /home/bjb2chen/gmsscr//AsH3cat_cct_gmcpt_C1_3st_diab_mode12_+0.05.F97
-rw-r--r-- 1 bjb2chen nooijen    1184 Dec  4 10:32 /home/bjb2chen/gmsscr//AsH3cat_cct_gmcpt_C1_3st_diab_mode12_+0.05.F97.001
-rw-r--r-- 1 bjb2chen nooijen    9808 Dec  4 10:32 /home/bjb2chen/gmsscr//AsH3cat_cct_gmcpt_C1_3st_diab_mode12_+0.05.F98
-rw-r--r-- 1 bjb2chen nooijen    9808 Dec  4 10:32 /home/bjb2chen/gmsscr//AsH3cat_cct_gmcpt_C1_3st_diab_mode12_+0.05.F98.001
-rw-r--r-- 1 bjb2chen nooijen   30264 Dec  4 10:32 /home/bjb2chen/gmsscr//AsH3cat_cct_gmcpt_C1_3st_diab_mode12_+0.05.F99
-rw-r--r-- 1 bjb2chen nooijen   30264 Dec  4 10:32 /home/bjb2chen/gmsscr//AsH3cat_cct_gmcpt_C1_3st_diab_mode12_+0.05.F99.001
ls: No match.
ls: No match.
ls: No match.
Mon 04 Dec 2023 10:32:45 AM EST
0.348u 0.060s 3:57.91 0.1%	0+0k 288+496io 0pf+0w
