----- GAMESS execution script 'rungms' -----
This job is running on host io001
under operating system Linux at Mon 04 Dec 2023 10:28:44 AM EST
Available scratch disk space (Kbyte units) at beginning of the job is
Filesystem             1K-blocks       Used Available Use% Mounted on
helmholtz.nlogn:/home 6391504896 5230537728 838829056  87% /home
GAMESS temporary binary files will be written to /home/bjb2chen/gmsscr/
GAMESS supplementary output files will be written to /home/bjb2chen/gamess/vibronics/ash3/4state
Copying input file AsH3cat_cct_gmcpt_C1_3st_diab_mode3_+0.05.inp to your run's scratch directory...
cp AsH3cat_cct_gmcpt_C1_3st_diab_mode3_+0.05.inp /home/bjb2chen/gmsscr//AsH3cat_cct_gmcpt_C1_3st_diab_mode3_+0.05.F05
unset echo
 
Assuming a single but multicore node.
 
/home/bjb2chen/gamess/ddikick.x /home/bjb2chen/gamess/gamess.00.x AsH3cat_cct_gmcpt_C1_3st_diab_mode3_+0.05 -ddi 1 2 io001:cpus=2 -scr /home/bjb2chen/gmsscr/

 Distributed Data Interface kickoff program.
 Initiating 2 compute processes on 1 nodes to run the following command:
 /home/bjb2chen/gamess/gamess.00.x AsH3cat_cct_gmcpt_C1_3st_diab_mode3_+0.05 

          ******************************************************
          *         GAMESS VERSION = 02 AUG 2018 (R2)         *
          *             FROM IOWA STATE UNIVERSITY             *
          * M.W.SCHMIDT, K.K.BALDRIDGE, J.A.BOATZ, S.T.ELBERT, *
          *   M.S.GORDON, J.H.JENSEN, S.KOSEKI, N.MATSUNAGA,   *
          *          K.A.NGUYEN, S.J.SU, T.L.WINDUS,           *
          *       TOGETHER WITH M.DUPUIS, J.A.MONTGOMERY       *
          *         J.COMPUT.CHEM.  14, 1347-1363(1993)        *
          **************** 64 BIT LINUX VERSION ****************

  SINCE 1993, STUDENTS AND POSTDOCS WORKING AT IOWA STATE UNIVERSITY
  AND ALSO IN THEIR VARIOUS JOBS AFTER LEAVING ISU HAVE MADE IMPORTANT
  CONTRIBUTIONS TO THE CODE:
     IVANA ADAMOVIC, CHRISTINE AIKENS, YURI ALEXEEV, POOJA ARORA,
     ANDREY ASADCHEV, ROB BELL, PRADIPTA BANDYOPADHYAY, JONATHAN BENTZ,
     BRETT BODE, KURT BRORSEN, CALEB CARLIN, GALINA CHABAN, WEI CHEN,
     CHEOL HO CHOI, PAUL DAY, ALBERT DEFUSCO, NUWAN DESILVA, TIM DUDLEY,
     DMITRI FEDOROV, ALEX FINDLATER, GRAHAM FLETCHER, MARK FREITAG,
     KURT GLAESEMANN, ANASTASIA GUININA,
     DAN KEMP, GRANT MERRILL, NORIYUKI MINEZAWA, JONATHAN MULLIN,
     TAKESHI NAGATA, SEAN NEDD, HEATHER NETZLOFF, BOSILJKA NJEGIC, RYAN OLSON,
     MIKE PAK, BUU PHAM,
     SPENCER PRUITT, LUKE ROSKOP, JIM SHOEMAKER, LYUDMILA SLIPCHENKO,
     TONY SMITH, SAROM SOK LEANG, JIE SONG, TETSUYA TAKETSUGU, SIMON WEBB,
     PENG XU, SOOHAENG YOO, FEDERICO ZAHARIEV

  ADDITIONAL CODE HAS BEEN PROVIDED BY COLLABORATORS IN OTHER GROUPS:
     IOWA STATE UNIVERSITY:
          JOE IVANIC, AARON WEST, LAIMUTIS BYTAUTAS, KLAUS RUEDENBERG
     UNIVERSITY OF TOKYO: KIMIHIKO HIRAO, TAKAHITO NAKAJIMA,
          TAKAO TSUNEDA, MUNEAKI KAMIYA, SUSUMU YANAGISAWA,
          KIYOSHI YAGI, MAHITO CHIBA, SEIKEN TOKURA, NAOAKI KAWAKAMI
     UNIVERSITY OF AARHUS: FRANK JENSEN
     UNIVERSITY OF IOWA: VISVALDAS KAIRYS, HUI LI
     NATIONAL INST. OF STANDARDS AND TECHNOLOGY: WALT STEVENS, DAVID GARMER
     UNIVERSITY OF PISA: BENEDETTA MENNUCCI, JACOPO TOMASI
     UNIVERSITY OF MEMPHIS: HENRY KURTZ, PRAKASHAN KORAMBATH
     UNIVERSITY OF ALBERTA: TOBY ZENG, MARIUSZ KLOBUKOWSKI
     UNIVERSITY OF NEW ENGLAND: MARK SPACKMAN
     MIE UNIVERSITY: HIROAKI UMEDA
     NAT. INST. OF ADVANCED INDUSTRIAL SCIENCE AND TECHNOLOGY: KAZUO KITAURA
     MICHIGAN STATE UNIVERSITY:
          KAROL KOWALSKI, MARTA WLOCH, JEFFREY GOUR, JESSE LUTZ,
          WEI LI, JUN SHEN, J. EMILIANO DEUSTUA, PIOTR PIECUCH
     UNIVERSITY OF MINNESOTA:
          YINAN SHU
     UNIVERSITY OF SILESIA: MONIKA MUSIAL, STANISLAW KUCHARSKI
     FACULTES UNIVERSITAIRES NOTRE-DAME DE LA PAIX:
          OLIVIER QUINET, BENOIT CHAMPAGNE
     UNIVERSITY OF CALIFORNIA - SANTA BARBARA: BERNARD KIRTMAN
     INSTITUTE FOR MOLECULAR SCIENCE:
          KAZUYA ISHIMURA, MICHIO KATOUDA, AND SHIGERU NAGASE
     UNIVERSITY OF NOTRE DAME: ANNA POMOGAEVA, DAN CHIPMAN
     KYUSHU UNIVERSITY:
          HARUYUKI NAKANO,
          FENG LONG GU, JACEK KORCHOWIEC, MARCIN MAKOWSKI, AND YURIKO AOKI,
          HIROTOSHI MORI AND EISAKU MIYOSHI
     PENNSYLVANIA STATE UNIVERSITY:
          TZVETELIN IORDANOV, CHET SWALINA, JONATHAN SKONE,
          SHARON HAMMES-SCHIFFER
     WASEDA UNIVERSITY:
          MASATO KOBAYASHI, TOMOKO AKAMA, TSUGUKI TOUMA,
          TAKESHI YOSHIKAWA, YASUHIRO IKABATA, JUNJI SEINO,
          YUYA NAKAJIMA, HIROMI NAKAI
     NANJING UNIVERSITY: SHUHUA LI
     UNIVERSITY OF NEBRASKA:
          PEIFENG SU, DEJUN SI, NANDUN THELLAMUREGE, YALI WANG, HUI LI
     UNIVERSITY OF ZURICH: ROBERTO PEVERATI, KIM BALDRIDGE
     N. COPERNICUS UNIVERSITY AND JACKSON STATE UNIVERSITY:
          MARIA BARYSZ
     UNIVERSITY OF COPENHAGEN: Jimmy Kromann, CASPER STEINMANN
     TOKYO INSTITUTE OF TECHNOLOGY: HIROYA NAKATA
     NAGOYA UNIVERSITY: YOSHIO NISHIMOTO, STEPHAN IRLE
     MOSCOW STATE UNIVERSITY: VLADIMIR MIRONOV


 PARALLEL VERSION RUNNING ON        2 PROCESSORS IN        1 NODES.

 EXECUTION OF GAMESS BEGUN Mon Dec  4 10:28:44 2023

            ECHO OF THE FIRST FEW INPUT CARDS -
 INPUT CARD> !Step 4: Calculation using REFDET                                              
 INPUT CARD> $system kdiag=3 mwords=250 memddi=8000 parall=.t. $end                         
 INPUT CARD> $contrl runtyp=energy ispher=1 $end                                            
 INPUT CARD> $contrl icut=9 itol=20 inttyp=rysquad qmttol=1.0d-05 nosym=1 $end              
 INPUT CARD> $scf    npunch=2 conv=1.0d-06 dirscf=.t. diis=.t. soscf=.f. ethrsh=10.0 $end   
 INPUT CARD> $contrl scftyp=mcscf  mult=2 maxit=200 icharg=1 mplevl=2 $end                  
 INPUT CARD> $guess  guess=moread norb=85 purify=.t. $end                                   
 INPUT CARD> $basis  gbasis=cct $end                                                        
 INPUT CARD> $mcscf  cistep=gmcci fullnr=.t. finci=mos                                      
 INPUT CARD>         acurcy=1.d-6 maxit=200 $end                                            
 INPUT CARD> $trans  dirtrf=.t. $end                                                        
 INPUT CARD> $mrmp   mrpt=gmcpt rdvecs=.f. $end                                             
 INPUT CARD> $gmcpt  nmofzc=5 nmodoc=9 nmoact=7 nelact=7 stsym(1)=A                         
 INPUT CARD>         reftyp=ormas nspace=1 mstart(1)=15 mine(1)=7 maxe(1)=7                 
 INPUT CARD>         kstate(1)=1,1,1,1                                                      
 INPUT CARD>         wstate(1)=1,1,1,1                                                      
 INPUT CARD>         iwgt=0 thrwgt=-1.0 krot=.f. kszdoe=.f. knospn=.f.                      
 INPUT CARD>         thrde=-1.0 edshft=0.02 $end                                            
 INPUT CARD> $statpt hssend=.t. $end                                                        
 INPUT CARD> $end                                                                           
 INPUT CARD>--- Semi-canonical MOs --- generated at Mon Dec  4 10:21:58 2023                
 INPUT CARD> $VEC                                                                           
 INPUT CARD> 1  1 9.99999416E-01 7.29973887E-07-3.99440478E-06-4.81875831E-06 1.63484706E-05
 INPUT CARD> 1  2 5.36732169E-06-0.00000000E+00-0.00000000E+00-0.00000000E+00 4.03838885E-11
 INPUT CARD> 1  3-0.00000000E+00-0.00000000E+00 7.96211074E-11 1.14517212E-11-0.00000000E+00
 INPUT CARD> 1  4-1.40849369E-11-0.00000000E+00-0.00000000E+00-2.21867430E-11-0.00000000E+00
 INPUT CARD> 1  5-0.00000000E+00 1.08959399E-07 1.08961145E-07-2.17920544E-07-0.00000000E+00
 INPUT CARD> 1  6-0.00000000E+00-0.00000000E+00 7.02728157E-08 7.02573272E-08-1.40530143E-07
 INPUT CARD> 1  7-0.00000000E+00-0.00000000E+00-0.00000000E+00 8.61676265E-08 8.61266319E-08
 INPUT CARD> 1  8-1.72294258E-07-0.00000000E+00-0.00000000E+00-0.00000000E+00 1.61185015E-07
 INPUT CARD> 1  9-0.00000000E+00-0.00000000E+00-0.00000000E+00-0.00000000E+00-2.16246982E-07
 INPUT CARD> 1 10-0.00000000E+00-0.00000000E+00-0.00000000E+00-0.00000000E+00-2.29650252E-07
 INPUT CARD> 1 11-4.66898658E-07-1.12343498E-06-6.64097518E-08 1.15015824E-07-0.00000000E+00
 INPUT CARD> 1 12-1.90369794E-07 3.29734733E-07-0.00000000E+00 4.67684240E-08-2.10541491E-07
 INPUT CARD> 1 13 1.63773067E-07 2.57316182E-07-0.00000000E+00-0.00000000E+00-2.29652599E-07
 INPUT CARD> 1 14-4.66879487E-07-1.12342770E-06-6.64102175E-08-1.15016523E-07-0.00000000E+00
 INPUT CARD> 1 15-1.90364897E-07-3.29724918E-07-0.00000000E+00 4.67679470E-08-2.10540564E-07
 INPUT CARD> 1 16 1.63772617E-07-2.57315196E-07-0.00000000E+00-0.00000000E+00-2.29639944E-07
 INPUT CARD> 1 17-4.66987046E-07-1.12340031E-06 1.32807841E-07-0.00000000E+00-0.00000000E+00
 INPUT CARD> 1 18 3.80780830E-07-0.00000000E+00-0.00000000E+00-3.39206184E-07 1.75440103E-07
 INPUT CARD> 1 19 1.63766080E-07-0.00000000E+00-0.00000000E+00-0.00000000E+00               
 INPUT CARD> 2  1 2.72313662E-06 1.00010341E+00 1.34746909E-04 1.43214017E-04-4.26044547E-04
 INPUT CARD> 2  2-1.40486446E-04 7.10299112E-11-7.88863849E-11-0.00000000E+00-5.42197215E-11
 INPUT CARD> 2  3-1.27361486E-11-0.00000000E+00-1.68049866E-10-3.19745914E-11-0.00000000E+00
 INPUT CARD> 2  4 2.95588732E-11-0.00000000E+00-0.00000000E+00-0.00000000E+00-0.00000000E+00
 INPUT CARD> 2  5-0.00000000E+00-6.69941071E-07-6.69957164E-07 1.33989824E-06-0.00000000E+00
 INPUT CARD> 2  6-0.00000000E+00-0.00000000E+00-2.23303604E-06-2.23305293E-06 4.46608898E-06
 INPUT CARD> 2  7-0.00000000E+00-0.00000000E+00-0.00000000E+00-1.84537905E-06-1.84515653E-06
 INPUT CARD> 2  8 3.69053558E-06 1.25718203E-11-0.00000000E+00-0.00000000E+00-6.15992627E-06
 INPUT CARD> 2  9-0.00000000E+00-0.00000000E+00-0.00000000E+00-0.00000000E+00 8.26439636E-06
  250000000 WORDS OF MEMORY AVAILABLE

     BASIS OPTIONS
     -------------
     GBASIS=CCT          IGAUSS=       0      POLAR=NONE    
     NDFUNC=       0     NFFUNC=       0     DIFFSP=       F
     NPFUNC=       0      DIFFS=       F     BASNAM=        


     RUN TITLE
     ---------
 AsH3+ calculation at 4 states                                                   

 THE POINT GROUP OF THE MOLECULE IS C1      
 THE ORDER OF THE PRINCIPAL AXIS IS     0

 ATOM      ATOMIC                      COORDINATES (BOHR)
           CHARGE         X                   Y                   Z
 AS         33.0     0.0000043134       -0.0000003222        0.0000000000
 H           1.0    -1.3842480619        2.3975951742       -0.1230415481
 H           1.0    -1.3842481351       -2.3975957784        0.1341489827
 H           1.0     2.7685091150       -0.0000003625       -0.0111074347

          INTERNUCLEAR DISTANCES (ANGS.)
          ------------------------------

                1 AS         2 H          3 H          4 H     

   1 AS      0.0000000    1.4664759 *  1.4667486 *  1.4650415 *
   2 H       1.4664759 *  0.0000000    2.5411532 *  2.5381972 *
   3 H       1.4667486 *  2.5411532 *  0.0000000    2.5386699 *
   4 H       1.4650415 *  2.5381972 *  2.5386699 *  0.0000000  

  * ... LESS THAN  3.000


     ATOMIC BASIS SET
     ----------------
 THE CONTRACTED PRIMITIVE FUNCTIONS HAVE BEEN UNNORMALIZED
 THE CONTRACTED BASIS FUNCTIONS ARE NOW NORMALIZED TO UNITY

  SHELL TYPE  PRIMITIVE        EXPONENT          CONTRACTION COEFFICIENT(S)

 AS        

      1   S       1       8482340.0000000    0.000006800003
      1   S       2       1270151.0000000    0.000052800023
      1   S       3        289057.0000000    0.000277400122
      1   S       4         81879.8500000    0.001170200514
      1   S       5         26716.5600000    0.004242101862
      1   S       6          9647.5840000    0.013655705995
      1   S       7          3764.1190000    0.039339917271
      1   S       8          1561.5660000    0.099929243872
      1   S       9           680.8147000    0.212155593142
      1   S      10           309.2412000    0.336386747683
      1   S      11           145.2574000    0.315512638518
      1   S      12            69.7390500    0.118131251863
      1   S      13            31.7703200    0.008007603516
      1   S      14            15.3917600    0.000329300145
      1   S      15             7.3415260   -0.000152300067
      1   S      16             3.3237160    0.000024700011
      1   S      17             1.4858670   -0.000036600016
      1   S      18             0.2115000   -0.000009400004

      2   S      19       8482340.0000000   -0.000002099844
      2   S      20       1270151.0000000   -0.000016498771
      2   S      21        289057.0000000   -0.000086593551
      2   S      22         81879.8500000   -0.000365272798
      2   S      23         26716.5600000   -0.001330800894
      2   S      24          9647.5840000   -0.004308979105
      2   S      25          3764.1190000   -0.012696354487
      2   S      26          1561.5660000   -0.033613496762
      2   S      27           680.8147000   -0.078941121158
      2   S      28           309.2412000   -0.151434522485
      2   S      29           145.2574000   -0.204186194004
      2   S      30            69.7390500   -0.055732549529
      2   S      31            31.7703200    0.418729516699
      2   S      32            15.3917600    0.575833316987
      2   S      33             7.3415260    0.169671564351
      2   S      34             3.3237160    0.006065748276
      2   S      35             1.4858670    0.001760368903
      2   S      36             0.2115000    0.000231582754

      3   S      37       8482340.0000000    0.000000818623
      3   S      38       1270151.0000000    0.000006548987
      3   S      39        289057.0000000    0.000034484509
      3   S      40         81879.8500000    0.000145612630
      3   S      41         26716.5600000    0.000530877249
      3   S      42          9647.5840000    0.001719313712
      3   S      43          3764.1190000    0.005083344082
      3   S      44          1561.5660000    0.013519053150
      3   S      45           680.8147000    0.032188884481
      3   S      46           309.2412000    0.063284292808
      3   S      47           145.2574000    0.090004159277
      3   S      48            69.7390500    0.026354351138
      3   S      49            31.7703200   -0.251262012099
      3   S      50            15.3917600   -0.520907644337
      3   S      51             7.3415260   -0.056868639208
      3   S      52             3.3237160    0.724870110338
      3   S      53             1.4858670    0.535280112340
      3   S      54             0.2115000   -0.011376408833

      4   S      55       8482340.0000000   -0.000000322182
      4   S      56       1270151.0000000   -0.000002899636
      4   S      57        289057.0000000   -0.000014981451
      4   S      58         81879.8500000   -0.000063147623
      4   S      59         26716.5600000   -0.000230198862
      4   S      60          9647.5840000   -0.000745689664
      4   S      61          3764.1190000   -0.002204850817
      4   S      62          1561.5660000   -0.005870151514
      4   S      63           680.8147000   -0.013996219653
      4   S      64           309.2412000   -0.027636106289
      4   S      65           145.2574000   -0.039550065282
      4   S      66            69.7390500   -0.011844045553
      4   S      67            31.7703200    0.115999445484
      4   S      68            15.3917600    0.253920137348
      4   S      69             7.3415260    0.022886825089
      4   S      70             3.3237160   -0.459365613804
      4   S      71             1.4858670   -0.625893951029
      4   S      72             0.2115000    1.046339525967

      5   S      73             0.4210860    1.000000000000

      6   S      74             0.0889740    1.000000000000

      7   P      75          7423.8610000    0.000459888095
      7   P      76          1759.5170000    0.003982196918
      7   P      77           570.2292000    0.021463244409
      7   P      78           216.5800000    0.082459565479
      7   P      79            90.7342500    0.223884404601
      7   P      80            40.3087900    0.392060251256
      7   P      81            18.5555000    0.354214630915
      7   P      82             8.3965430    0.104861385592
      7   P      83             3.7673670    0.003366312861
      7   P      84             1.6297010    0.001849452126
      7   P      85             0.2225030    0.000229694054

      8   P      86          7423.8610000   -0.000183933273
      8   P      87          1759.5170000   -0.001603623364
      8   P      88           570.2292000   -0.008714684634
      8   P      89           216.5800000   -0.034482567311
      8   P      90            90.7342500   -0.097731519242
      8   P      91            40.3087900   -0.183894927481
      8   P      92            18.5555000   -0.150374370146
      8   P      93             8.3965430    0.201569541112
      8   P      94             3.7673670    0.550783570924
      8   P      95             1.6297010    0.395483295494
      8   P      96             0.2225030   -0.005537068181

      9   P      97          7423.8610000    0.000067575484
      9   P      98          1759.5170000    0.000590735054
      9   P      99           570.2292000    0.003209920148
      9   P     100           216.5800000    0.012757201241
      9   P     101            90.7342500    0.036296841475
      9   P     102            40.3087900    0.069067055648
      9   P     103            18.5555000    0.055084858236
      9   P     104             8.3965430   -0.092951347783
      9   P     105             3.7673670   -0.256062306212
      9   P     106             1.6297010   -0.211535143443
      9   P     107             0.2225030    0.991664800915

     10   P     108             0.5682630    1.000000000000

     11   P     109             0.0804050    1.000000000000

     12   D     110           321.0196000    0.001738948853
     12   D     111            96.2493100    0.014620594557
     12   D     112            36.6449600    0.064875906626
     12   D     113            15.4939600    0.184323725081
     12   D     114             6.8911380    0.331417629149
     12   D     115             3.0548310    0.389664464481
     12   D     116             1.3142410    0.283997092847

     13   D     117             0.5134300    1.000000000000

     14   D     118             0.1877000    1.000000000000

     15   F     119             0.4158000    1.000000000000

 H         

     16   S     120            33.8700000    0.025494863235
     16   S     121             5.0950000    0.190362765893
     16   S     122             1.1590000    0.852162022245

     17   S     123             0.3258000    1.000000000000

     18   S     124             0.1027000    1.000000000000

     19   P     125             1.4070000    1.000000000000

     20   P     126             0.3880000    1.000000000000

     21   D     127             1.0570000    1.000000000000

 H         

     22   S     128            33.8700000    0.025494863235
     22   S     129             5.0950000    0.190362765893
     22   S     130             1.1590000    0.852162022245

     23   S     131             0.3258000    1.000000000000

     24   S     132             0.1027000    1.000000000000

     25   P     133             1.4070000    1.000000000000

     26   P     134             0.3880000    1.000000000000

     27   D     135             1.0570000    1.000000000000

 H         

     28   S     136            33.8700000    0.025494863235
     28   S     137             5.0950000    0.190362765893
     28   S     138             1.1590000    0.852162022245

     29   S     139             0.3258000    1.000000000000

     30   S     140             0.1027000    1.000000000000

     31   P     141             1.4070000    1.000000000000

     32   P     142             0.3880000    1.000000000000

     33   D     143             1.0570000    1.000000000000

 TOTAL NUMBER OF BASIS SET SHELLS             =   33
 NUMBER OF CARTESIAN GAUSSIAN BASIS FUNCTIONS =   94
 NOTE: THIS RUN WILL RESTRICT THE MO VARIATION SPACE TO SPHERICAL HARMONICS.
 THE NUMBER OF ORBITALS KEPT IN THE VARIATIONAL SPACE WILL BE PRINTED LATER.
 NUMBER OF ELECTRONS                          =   35
 CHARGE OF MOLECULE                           =    1
 SPIN MULTIPLICITY                            =    2
 NUMBER OF OCCUPIED ORBITALS (ALPHA)          =   18
 NUMBER OF OCCUPIED ORBITALS (BETA )          =   17
 TOTAL NUMBER OF ATOMS                        =    4
 THE NUCLEAR REPULSION ENERGY IS       36.3587302680

     $CONTRL OPTIONS
     ---------------
 SCFTYP=MCSCF        RUNTYP=ENERGY       EXETYP=RUN     
 MPLEVL=       2     CITYP =NONE         CCTYP =NONE         VBTYP =NONE    
 DFTTYP=NONE         TDDFT =NONE    
 MULT  =       2     ICHARG=       1     NZVAR =       0     COORD =UNIQUE  
 PP    =NONE         RELWFN=NONE         LOCAL =NONE         NUMGRD=       F
 ISPHER=       1     NOSYM =       1     MAXIT =     200     UNITS =ANGS    
 PLTORB=       F     MOLPLT=       F     AIMPAC=       F     FRIEND=        
 NPRINT=       7     IREST =       0     GEOM  =INPUT   
 NORMF =       0     NORMP =       0     ITOL  =      20     ICUT  =       9
 INTTYP=RYSQUAD      GRDTYP=BEST         QMTTOL= 1.0E-05

     $SYSTEM OPTIONS
     ---------------
  REPLICATED MEMORY=   250000000 WORDS (ON EVERY NODE).
 DISTRIBUTED MEMDDI=        8000 MILLION WORDS IN AGGREGATE,
 MEMDDI DISTRIBUTED OVER   2 PROCESSORS IS  4000000000 WORDS/PROCESSOR.
 TOTAL MEMORY REQUESTED ON EACH PROCESSOR=  4250000000 WORDS.
 TIMLIM=      525600.00 MINUTES, OR     365.0 DAYS.
 PARALL= T  BALTYP=  DLB     KDIAG=    3  COREFL= F
 MXSEQ2=     300 MXSEQ3=     150  mem10=         0

          ----------------
          PROPERTIES INPUT
          ----------------

     MOMENTS            FIELD           POTENTIAL          DENSITY
 IEMOM =       1   IEFLD =       0   IEPOT =       0   IEDEN =       0
 WHERE =COMASS     WHERE =NUCLEI     WHERE =NUCLEI     WHERE =NUCLEI  
 OUTPUT=BOTH       OUTPUT=BOTH       OUTPUT=BOTH       OUTPUT=BOTH    
 IEMINT=       0   IEFINT=       0                     IEDINT=       0
                                                       MORB  =       0

     -------------------------------
     INTEGRAL TRANSFORMATION OPTIONS
     -------------------------------
     NWORD  =            0
     CUTOFF = 1.0E-09     MPTRAN =       0
     DIRTRF =       T     AOINTS =DUP     

          ----------------------
          MCSCF INPUT PARAMETERS
          ----------------------
 CONVERGER SELECTION: FOCAS = F  SOSCF = F  FULLNR = T  QUD = F  JACOBI = F
 SECULAR EQUATION METHOD CISTEP = GMCCI   
 --- GENERAL INPUT OPTIONS:
 MAXIT =     200  MICIT =       1  ACURCY= 1.000E-06
 DAMP  =   0.000  CANONC=       T  ENGTOL= 1.000E-10
 EKT   =       F  NPUNCH=       2  NWORD =         0
 REGENERATE CI AFTER CONVERGENCE = NONE    
 DIABATIZATION AFTER CONVERGENCE =        F
 --- INPUT FOR FULLNR CONVERGER:
 METHOD=DM2       FORS  =       F  DROPC =       T
 LINSER=       F  FCORE =       F  NORB  =      94

          ----------------------
          INTEGRAL INPUT OPTIONS
          ----------------------
 NOPK  =       1 NORDER=       0 SCHWRZ=       T

 ------------------------------------------
 MULTIREFERENCE PERTURBATION THEORY CONTROL
 ------------------------------------------
 MRPT=GMCPT    READ CONVERGED MCSCF VECTORS= F


     ------------------------------------------
     THE POINT GROUP IS C1 , NAXIS= 1, ORDER= 1
     ------------------------------------------

 -- VARIATIONAL SPACE WILL BE RESTRICTED TO PURE SPHERICAL HARMONICS ONLY --
 AFTER EXCLUDING CONTAMINANT COMBINATIONS FROM THE CARTESIAN GAUSSIAN BASIS
 SET, THE NUMBER OF SPHERICAL HARMONICS KEPT IN THE VARIATION SPACE IS   85

     DIMENSIONS OF THE SYMMETRY SUBSPACES ARE
 A   =   85

 ..... DONE SETTING UP THE RUN .....
 CPU     0: STEP CPU TIME=     0.14 TOTAL CPU TIME=          0.1 (      0.0 MIN)
 TOTAL WALL CLOCK TIME=          0.4 SECONDS, CPU UTILIZATION IS    36.84%

          ********************
          1 ELECTRON INTEGRALS
          ********************
 TIME TO DO   DIPOLE INTEGRALS=      0.01
 ...... END OF ONE-ELECTRON INTEGRALS ......
 CPU     0: STEP CPU TIME=     0.01 TOTAL CPU TIME=          0.2 (      0.0 MIN)
 TOTAL WALL CLOCK TIME=          0.4 SECONDS, CPU UTILIZATION IS    37.50%

          -------------
          GUESS OPTIONS
          -------------
          GUESS =MOREAD            NORB  =      85          NORDER=       0
          MIX   =       F          PRTMO =       F          PUNMO =       F
          TOLZ  = 1.0E-08          TOLE  = 1.0E-05
          SYMDEN=       F          PURIFY=       T

 INITIAL GUESS ORBITALS GENERATED BY MOREAD   ROUTINE.

 STATISTICS FOR GENERATION OF SYMMETRY ORBITAL -Q- MATRIX
 NUMBER OF CARTESIAN ATOMIC ORBITALS=         94
 NUMBER OF SPHERICAL CONTAMINANTS DROPPED=     9
 NUMBER OF LINEARLY DEPENDENT MOS DROPPED=     0
 TOTAL NUMBER OF MOS IN VARIATION SPACE=      85
 ORBITAL PURIFICATION WILL OCCUR

 SYMMETRIES FOR INITIAL GUESS ORBITALS FOLLOW.   BOTH SET(S).
    18 ORBITALS ARE OCCUPIED (   14 CORE ORBITALS).
     1=A        2=A        3=A        4=A        5=A        6=A        7=A   
     8=A        9=A       10=A       11=A       12=A       13=A       14=A   
    15=A       16=A       17=A       18=A       19=A       20=A       21=A   
    22=A       23=A       24=A       25=A       26=A       27=A       28=A   
    29=A       30=A       31=A       32=A       33=A       34=A       35=A   
    36=A       37=A       38=A       39=A       40=A       41=A       42=A   
    43=A       44=A       45=A       46=A       47=A       48=A       49=A   
    50=A       51=A       52=A       53=A       54=A       55=A       56=A   
    57=A       58=A       59=A       60=A       61=A       62=A       63=A   
    64=A       65=A       66=A       67=A       68=A       69=A       70=A   
    71=A       72=A       73=A       74=A       75=A       76=A       77=A   
    78=A       79=A       80=A       81=A       82=A       83=A       84=A   
    85=A   
 ...... END OF INITIAL ORBITAL SELECTION ......
 CPU     0: STEP CPU TIME=     0.11 TOTAL CPU TIME=          0.3 (      0.0 MIN)
 TOTAL WALL CLOCK TIME=          0.5 SECONDS, CPU UTILIZATION IS    50.98%

                    ----------------------
                    AO INTEGRAL TECHNOLOGY
                    ----------------------
     S,P,L SHELL ROTATED AXIS INTEGRALS, REPROGRAMMED BY
        KAZUYA ISHIMURA (IMS) AND JOSE SIERRA (SYNSTAR).
     S,P,D,L SHELL ROTATED AXIS INTEGRALS PROGRAMMED BY
        KAZUYA ISHIMURA (INSTITUTE FOR MOLECULAR SCIENCE).
     S,P,D,F,G SHELL TO TOTAL QUARTET ANGULAR MOMENTUM SUM 5,
        ERIC PROGRAM BY GRAHAM FLETCHER (ELORET AND NASA ADVANCED
        SUPERCOMPUTING DIVISION, AMES RESEARCH CENTER).
     S,P,D,F,G,L SHELL GENERAL RYS QUADRATURE PROGRAMMED BY
        MICHEL DUPUIS (PACIFIC NORTHWEST NATIONAL LABORATORY).

          --------------------
          2 ELECTRON INTEGRALS
          --------------------

 DIRECT SCF METHOD SKIPS INTEGRAL STORAGE ON DISK.
 DIRECT TRANSFORMATION SKIPS AO INTEGRAL STORAGE ON DISK.
  ...... END OF TWO-ELECTRON INTEGRALS .....
 STEP CPU TIME =     0.02 TOTAL CPU TIME =          0.3 (      0.0 MIN)
 TOTAL WALL CLOCK TIME=          0.5 SECONDS, CPU UTILIZATION IS    51.85%
 DDI: Creating Array [0] - 8836 x 231 = 2041116 words.
 DDI: Creating Array [1] - 64 x 4851 = 310464 words.
 DDI: Creating Array [2] - 231 x 231 = 53361 words.
 DDI: Creating Array [3] - 4465 x 231 = 1031415 words.

          -----------------
          MCSCF CALCULATION
          -----------------

 ----- NUCLEAR ENERGY ----- =        36.3587302680

     -------------------------------------------------
     GMC-PT/GMC-QDPT or general MCSCF input parameters
     -------------------------------------------------
 # of frozen core orbs. =         5 ->         0
 # of doubly occ. orbs. =         9
 # of active      orbs. =         7
 # of virtual     orbs. =        64
 # of active electrons  =         7
 # of states in CI      =         4
 Highest state in CI    =         4
 kstate =  1 1 1 1
 avecoe =  0.250 0.250 0.250 0.250
 State symmetry           = A           
 Assigned symmetry number = 1

 <<<Act. MO sym.: 1111111

 <<<Division of 1-ext.:  0 0
 <<<Division of 2-ext.:  0 1

 *** Reference space

 Reference type: ORMAS (= Occupation restricted multiple active space)
 # of orbitals          =  7
 # of minimum electrons =  7
 # of maximum electrons =  7
 State symmetry    =    1 (input)
 2*Sz              =    1 (input)
 Spin multiplicity =    2 (input)
 Dimension of reference space =      1225  (from      3432 walks)

 Dimension of reference space =      1225  (from      1225 walks)

 <<<Ionized spaces for Ref-CI:
      0:         1225 /   -1-0:         1960 /  0-1-0:         2891

 EVALUATING EXCHANGE INTEGRALS FOR DIRECT INTEGRAL TRANSFORMATION
 SCHWARZ INEQUALITY OVERHEAD:      4465 INTEGRALS, T=        0.21

     --------------------------------------------
     PARTIAL TWO ELECTRON INTEGRAL TRANSFORMATION
     --------------------------------------------

 NUMBER OF CORE MOLECULAR ORBITALS     =   14
 NUMBER OF OCCUPIED MOLECULAR ORBITALS =   21
 TOTAL NUMBER OF MOLECULAR ORBITALS    =   85
 TOTAL NUMBER OF ATOMIC ORBITALS       =   94
 THRESHOLD FOR KEEPING TRANSFORMED 2E- INTEGRALS = 1.000E-09

 -------------------------------     ------------------------------
 DISTRIBUTED DATA TRANSFORMATION     PROGRAM WRITTEN BY G. FLETCHER
 -------------------------------     ------------------------------

 THE DISTRIBUTED MEMORY REQUIRED FOR THIS STEP IS MEMDDI=         4 MWORDS
 CREATING DISTRIBUTED STORAGE FOR [VIR OCC|VIR OCC] INTEGRALS
 CREATING DISTRIBUTED STORAGE FOR [VIR OCC|OCC OCC] INTEGRALS
 CREATING DISTRIBUTED STORAGE FOR [OCC OCC|OCC OCC] INTEGRALS
 CREATING DISTRIBUTED STORAGE FOR [VIR VIR|OCC OCC] INTEGRALS
 FOR    2 PROCESSORS, THE REPLICATED MEMORY NEEDED IS      615709 WORDS.
 SCHWARZ INEQUALITY OVERHEAD:      4465 INTEGRALS, T=        0.21

      DIRECT 4-INDEX TRANSFORMATION 
      SCHWARZ INEQUALITY TEST SKIPPED       1082 INTEGRAL BLOCKS
 ----- FROZEN CORE ENERGY =     -2258.5364063099
 ... END OF INTEGRAL TRANSFORMATION ...
 CPU     0: STEP CPU TIME=    14.92 TOTAL CPU TIME=         15.2 (      0.3 MIN)
 TOTAL WALL CLOCK TIME=         15.5 SECONDS, CPU UTILIZATION IS    97.88%

     --------------------------------     -----------------------------
     MCHF NEWTON-RAPHSON OPTIMIZATION     CODE WRITTEN BY MICHEL DUPUIS
     --------------------------------     -----------------------------
     PARALLEL VERSION WRITTEN BY G. FLETCHER (ELORET)
     NASA ADVANCED SUPERCOMPUTING DIVISION, AMES RESEARCH CENTER

 NUMBER OF INDEPENDENT ORBITAL ROTATION PARAMETERS =  1417
 ..... DONE SOLVING NEWTON-RAPHSON EQUATIONS .....
 CPU     0: STEP CPU TIME=     0.96 TOTAL CPU TIME=         16.2 (      0.3 MIN)
 TOTAL WALL CLOCK TIME=         17.0 SECONDS, CPU UTILIZATION IS    95.11%
 ..... DONE WITH NTN-RPH ORBITAL ROTATIONS ..... 
 CPU     0: STEP CPU TIME=     0.01 TOTAL CPU TIME=         16.2 (      0.3 MIN)
 TOTAL WALL CLOCK TIME=         17.0 SECONDS, CPU UTILIZATION IS    95.17%
 MAXIMUM MEMORY USED BY NTN-RPH CODE WAS    197978 WORDS.

 ITER     TOTAL ENERGY      DEL(E)  LAGRANGIAN ASYMMETRY   SQCDF  MICIT   DAMP
   1    -2235.517058290 -0.517058290  0.005190   47   17 6.316E-04  1   0.0000
   2    -2235.517247148 -0.000188857  0.000225   26   19 6.080E-06  1   0.0000
   3    -2235.517247987 -0.000000840  0.000056   59   18 7.890E-07  1   0.0000
   4    -2235.517248053 -0.000000065  0.000017   59   18 3.142E-07  1   0.0000
   5    -2235.517248073 -0.000000020  0.000010   60   19 1.383E-07  1   0.0000
   6    -2235.517248081 -0.000000008  0.000007   60   19 6.029E-08  1   0.0000
   7    -2235.517248085 -0.000000004  0.000004   60   19 2.614E-08  1   0.0000
   8    -2235.517248087 -0.000000002  0.000003   60   19 1.127E-08  1   0.0000
   9    -2235.517248087 -0.000000001  0.000002   60   19 4.870E-09  1   0.0000
  10    -2235.517248088 -0.000000000  0.000001   60   19 2.129E-09  1   0.0000
  11    -2235.517248088 -0.000000000  0.000001   60   19 9.030E-10  1   0.0000

          --------------------
          LAGRANGIAN CONVERGED
          --------------------

 FINAL MCSCF ENERGY IS    -2235.5172480878 AFTER  11 ITERATIONS

 -MCCI- BASED ON OPTIMIZED ORBITALS
 ----------------------------------

 PLEASE NOTE: IF THE ACTIVE ORBITALS ARE CANONICALIZED BELOW,
 THE FOLLOWING CI EXPANSION COEFFICIENTS AND THE DENSITY DO NOT
 CORRESPOND TO THE PRINTED ORBITALS.  THE PRINTED EXPANSIONS MATCH
 THE ORBITALS USED DURING THE LAST ITERATION.  IF YOU WISH TO SEE
 CI EXPANSIONS BASED ON THE CANONICAL (OR NATURAL) ORBITALS, YOU
 MUST RUN A CI CALCULATION WITH THAT ORBITAL CHOICE READ IN $VEC.

 Averaged energy =   -2235.517248088

 State #    1  Energy =   -2235.693518540  S =  0.500

      Det      Coef    Occupancy (Ignoring core)
      ---      ----    --------- --------- -----
        1    0.976076  11110001110000
      107   -0.073563  11101000111000
      143    0.060955  11011001100100
      179    0.060863  10111001010100
      393    0.059123  10110101010010
      717    0.059141  11010011100001

 State #    2  Energy =   -2235.482183033  S =  0.500

      Det      Coef    Occupancy (Ignoring core)
      ---      ----    --------- --------- -----
        2   -0.951027  11101001110000
      106    0.172248  11110000111000
      110    0.057403  01111000111000
      156   -0.081354  11100011100100
      181    0.080651  11100101010100
      212   -0.064280  11101000110100
      387    0.077430  11101001010010
      396   -0.061197  10101101010010
      702   -0.078070  11101001100001
      720   -0.061061  11001011100001

 State #    3  Energy =   -2235.446668276  S =  0.500

      Det      Coef    Occupancy (Ignoring core)
      ---      ----    --------- --------- -----
       16    0.116905  11100011110000
       36   -0.945722  11110001101000
       39   -0.102082  10111001101000
       52   -0.091590  11010011101000
       71    0.084258  11110001011000
       73   -0.102160  11011001011000
      108   -0.055839  11011000111000
      112    0.050876  11010100111000
      123   -0.050909  10110010111000
      142    0.119830  11101001100100
      249   -0.069157  10111001001100
      463   -0.052656  10110101001010

 State #    4  Energy =   -2235.446622502  S =  0.500

      Det      Coef    Occupancy (Ignoring core)
      ---      ----    --------- --------- -----
        6   -0.117266  11100101110000
       36   -0.084307  11110001101000
       38   -0.102070  11011001101000
       71   -0.946205  11110001011000
       74    0.102196  10111001011000
       78    0.092150  10110101011000
      109   -0.055752  10111000111000
      113   -0.050991  10110100111000
      122   -0.050882  11010010111000
      177    0.119687  11101001010100
      248    0.069288  11011001001100
      822    0.052664  11010011001001

 DENSITY MATRIX OVER ACTIVE MO-S

             1           2           3           4           5

    1    1.9718783
    2    0.0000955   1.7202935
    3    0.0000125  -0.0000377   1.7198929
    4   -0.0000004  -0.0012003  -0.0129033   1.2377830
    5    0.0034568  -0.0003096  -0.0000409   0.0000040   0.2906609
    6   -0.0000057   0.0006427   0.0000687   0.0024895  -0.0011505
    7   -0.0000008   0.0000661   0.0013562   0.0263932  -0.0001502

             6           7

    6    0.0294290
    7    0.0000613   0.0300625

 FORMING THE "STANDARD FOCK OPERATOR" IN DIRECT AO INTEGRAL MODE...
 ONLY THE   14 CORE AND   64 VIRTUAL ORBITALS WILL BE CANONICALIZED

          ----------------------
          MCSCF NATURAL ORBITALS
          ----------------------

                      1          2          3          4          5
                 -432.8955   -56.6209   -50.4654   -50.4653   -50.4653
                     A          A          A          A          A   
    1  AS 1  S    0.999999   0.000003  -0.000000  -0.000000  -0.000000
    2  AS 1  S    0.000001   1.000103   0.000000   0.000000   0.000000
    3  AS 1  S   -0.000004   0.000134  -0.000000  -0.000000  -0.000001
    4  AS 1  S   -0.000005   0.000143  -0.000000  -0.000000  -0.000001
    5  AS 1  S    0.000016  -0.000426  -0.000000  -0.000000  -0.000000
    6  AS 1  S    0.000005  -0.000140  -0.000000  -0.000000  -0.000000
    7  AS 1  X    0.000000  -0.000000   0.004009   0.073203   0.997334
    8  AS 1  Y    0.000000  -0.000000   0.053593   0.995893  -0.073313
    9  AS 1  Z   -0.000000   0.000000   0.998580  -0.053742  -0.000069
   10  AS 1  X    0.000000   0.000000   0.000000  -0.000000  -0.000003
   11  AS 1  Y    0.000000   0.000000   0.000000  -0.000002   0.000000
   12  AS 1  Z    0.000000  -0.000000   0.000001   0.000000   0.000000
   13  AS 1  X    0.000000  -0.000000  -0.000000  -0.000006  -0.000088
   14  AS 1  Y    0.000000  -0.000000  -0.000000  -0.000087   0.000006
   15  AS 1  Z    0.000000   0.000000  -0.000002   0.000005   0.000000
   16  AS 1  X    0.000000  -0.000000  -0.000002  -0.000037  -0.000499
   17  AS 1  Y    0.000000  -0.000000  -0.000024  -0.000498   0.000037
   18  AS 1  Z   -0.000000   0.000000  -0.000446   0.000027   0.000000
   19  AS 1  X    0.000000  -0.000000  -0.000000  -0.000007  -0.000090
   20  AS 1  Y    0.000000  -0.000000  -0.000004  -0.000090   0.000007
   21  AS 1  Z   -0.000000   0.000000  -0.000069   0.000005   0.000000
   22  AS 1 XX    0.000000  -0.000001   0.000000   0.000000   0.000002
   23  AS 1 YY    0.000000  -0.000001  -0.000000  -0.000000  -0.000002
   24  AS 1 ZZ   -0.000000   0.000001  -0.000000  -0.000000  -0.000000
   25  AS 1 XY   -0.000000   0.000000  -0.000000  -0.000002   0.000000
   26  AS 1 XZ   -0.000000   0.000000   0.000000   0.000000  -0.000000
   27  AS 1 YZ   -0.000000   0.000000  -0.000000   0.000000   0.000000
   28  AS 1 XX    0.000000  -0.000002  -0.000000  -0.000004  -0.000056
   29  AS 1 YY    0.000000  -0.000002   0.000000   0.000004   0.000055
   30  AS 1 ZZ   -0.000000   0.000004   0.000000   0.000000   0.000000
   31  AS 1 XY   -0.000000   0.000000   0.000000   0.000064  -0.000005
   32  AS 1 XZ   -0.000000   0.000000  -0.000000  -0.000003   0.000001
   33  AS 1 YZ   -0.000000   0.000000  -0.000000  -0.000000  -0.000003
   34  AS 1 XX    0.000000  -0.000002  -0.000000  -0.000001  -0.000016
   35  AS 1 YY    0.000000  -0.000002   0.000000   0.000001   0.000016
   36  AS 1 ZZ   -0.000000   0.000004  -0.000000   0.000000   0.000000
   37  AS 1 XY   -0.000000   0.000000   0.000000   0.000018  -0.000001
   38  AS 1 XZ   -0.000000   0.000000  -0.000000  -0.000001   0.000000
   39  AS 1 YZ   -0.000000   0.000000  -0.000000  -0.000000  -0.000001
   40  AS 1 XXX   0.000000  -0.000006   0.000000  -0.000001  -0.000013
   41  AS 1 YYY   0.000000  -0.000000   0.000000  -0.000013   0.000001
   42  AS 1 ZZZ   0.000000  -0.000000  -0.000000  -0.000003  -0.000000
   43  AS 1 XXY   0.000000  -0.000000   0.000000  -0.000006   0.000000
   44  AS 1 XXZ  -0.000000   0.000000   0.000000   0.000000   0.000000
   45  AS 1 YYX  -0.000000   0.000008   0.000000  -0.000000  -0.000006
   46  AS 1 YYZ   0.000000  -0.000000   0.000000   0.000003  -0.000000
   47  AS 1 ZZX  -0.000000   0.000000  -0.000000   0.000002   0.000023
   48  AS 1 ZZY  -0.000000   0.000000  -0.000000   0.000023  -0.000002
   49  AS 1 XYZ   0.000000  -0.000001   0.000000   0.000000   0.000002
   50  H  2  S   -0.000000   0.000006  -0.000000  -0.000012   0.000008
   51  H  2  S   -0.000000   0.000011   0.000000   0.000057  -0.000039
   52  H  2  S   -0.000001   0.000029   0.000000   0.000039  -0.000026
   53  H  2  X   -0.000000   0.000002   0.000000   0.000007  -0.000005
   54  H  2  Y    0.000000  -0.000003   0.000000  -0.000012   0.000008
   55  H  2  Z   -0.000000   0.000000   0.000001   0.000001  -0.000000
   56  H  2  X   -0.000000   0.000004  -0.000000   0.000029  -0.000021
   57  H  2  Y    0.000000  -0.000008  -0.000000  -0.000051   0.000034
   58  H  2  Z   -0.000000   0.000000  -0.000005   0.000003  -0.000002
   59  H  2 XX    0.000000  -0.000001   0.000000  -0.000002   0.000005
   60  H  2 YY   -0.000000   0.000005  -0.000000   0.000020  -0.000017
   61  H  2 ZZ    0.000000  -0.000004   0.000000  -0.000018   0.000012
   62  H  2 XY    0.000000  -0.000006   0.000000  -0.000027   0.000016
   63  H  2 XZ   -0.000000   0.000000   0.000003   0.000001  -0.000001
   64  H  2 YZ    0.000000  -0.000001  -0.000005  -0.000002   0.000002
   65  H  3  S   -0.000000   0.000006   0.000000   0.000013   0.000006
   66  H  3  S   -0.000000   0.000011  -0.000000  -0.000062  -0.000030
   67  H  3  S   -0.000001   0.000029  -0.000000  -0.000042  -0.000020
   68  H  3  X   -0.000000   0.000002   0.000000  -0.000007  -0.000004
   69  H  3  Y   -0.000000   0.000003   0.000000  -0.000013  -0.000006
   70  H  3  Z    0.000000  -0.000000   0.000001   0.000001   0.000000
   71  H  3  X   -0.000000   0.000004  -0.000000  -0.000031  -0.000017
   72  H  3  Y   -0.000000   0.000008  -0.000000  -0.000056  -0.000026
   73  H  3  Z    0.000000  -0.000000  -0.000005   0.000003   0.000001
   74  H  3 XX    0.000000  -0.000001   0.000000   0.000003   0.000005
   75  H  3 YY   -0.000000   0.000005   0.000000  -0.000022  -0.000014
   76  H  3 ZZ    0.000000  -0.000004  -0.000001   0.000020   0.000009
   77  H  3 XY   -0.000000   0.000006   0.000000  -0.000029  -0.000012
   78  H  3 XZ    0.000000  -0.000000   0.000003   0.000002   0.000001
   79  H  3 YZ    0.000000  -0.000001   0.000005   0.000003   0.000002
   80  H  4  S   -0.000000   0.000006  -0.000000  -0.000001  -0.000014
   81  H  4  S   -0.000000   0.000012   0.000000   0.000005   0.000070
   82  H  4  S   -0.000001   0.000029   0.000000   0.000003   0.000047
   83  H  4  X    0.000000  -0.000004   0.000000  -0.000001  -0.000017
   84  H  4  Y    0.000000   0.000000   0.000000  -0.000001   0.000000
   85  H  4  Z   -0.000000   0.000000   0.000001   0.000000   0.000000
   86  H  4  X    0.000000  -0.000009  -0.000000  -0.000005  -0.000071
   87  H  4  Y    0.000000  -0.000000  -0.000000  -0.000002   0.000000
   88  H  4  Z   -0.000000   0.000000  -0.000005   0.000000   0.000000
   89  H  4 XX   -0.000000   0.000008  -0.000000   0.000003   0.000042
   90  H  4 YY    0.000000  -0.000004  -0.000000  -0.000001  -0.000020
   91  H  4 ZZ    0.000000  -0.000004   0.000000  -0.000002  -0.000022
   92  H  4 XY   -0.000000   0.000000  -0.000000  -0.000004   0.000000
   93  H  4 XZ    0.000000  -0.000000  -0.000006   0.000000  -0.000000
   94  H  4 YZ   -0.000000   0.000000   0.000000   0.000000  -0.000000

                      6          7          8          9         10
                   -8.3449    -6.1997    -6.1997    -6.1963    -2.4337
                     A          A          A          A          A   
    1  AS 1  S   -0.000085  -0.000000  -0.000000   0.000000   0.000000
    2  AS 1  S   -0.000608  -0.000003  -0.000001  -0.000000   0.000003
    3  AS 1  S    0.975261  -0.000020  -0.000005   0.000000   0.000007
    4  AS 1  S   -0.001918  -0.000013  -0.000003  -0.000000  -0.000001
    5  AS 1  S    0.036268   0.000006   0.000001   0.000000  -0.000010
    6  AS 1  S    0.004129   0.000004   0.000001  -0.000000  -0.000005
    7  AS 1  X   -0.000000  -0.000105  -0.000008   0.000000   0.000215
    8  AS 1  Y   -0.000000   0.000008  -0.000105   0.000002  -0.000016
    9  AS 1  Z    0.000000   0.000000   0.000006   0.000032  -0.000000
   10  AS 1  X    0.000007   0.971699   0.072340   0.003909   0.001041
   11  AS 1  Y    0.000001  -0.072445   0.970296   0.052252  -0.000078
   12  AS 1  Z   -0.000000  -0.000013  -0.052329   0.974272  -0.000000
   13  AS 1  X   -0.000002  -0.000993  -0.000074   0.000002   0.004628
   14  AS 1  Y   -0.000000   0.000074  -0.000992   0.000023  -0.000345
   15  AS 1  Z    0.000000   0.000000   0.000054   0.000431  -0.000000
   16  AS 1  X    0.000002   0.047662   0.003548   0.000187  -0.001882
   17  AS 1  Y    0.000000  -0.003553   0.047596   0.002498   0.000140
   18  AS 1  Z   -0.000000  -0.000001  -0.002567   0.046574   0.000000
   19  AS 1  X    0.000002   0.002060   0.000154   0.000007  -0.002550
   20  AS 1  Y    0.000000  -0.000154   0.002059   0.000088   0.000190
   21  AS 1  Z   -0.000000  -0.000000  -0.000111   0.001650   0.000000
   22  AS 1 XX    0.000324   0.000611   0.000045   0.000000   0.835055
   23  AS 1 YY    0.000319  -0.000605  -0.000044   0.000000  -0.832274
   24  AS 1 ZZ   -0.000643  -0.000006  -0.000001  -0.000000  -0.002781
   25  AS 1 XY   -0.000000   0.000052  -0.000692   0.000000   0.071800
   26  AS 1 XZ   -0.000004  -0.000006   0.000037   0.000003  -0.007721
   27  AS 1 YZ   -0.000060   0.000037   0.000005   0.000000   0.051229
   28  AS 1 XX    0.000050  -0.000328  -0.000025   0.000000   0.073103
   29  AS 1 YY    0.000051   0.000326   0.000024   0.000000  -0.072858
   30  AS 1 ZZ   -0.000101   0.000002   0.000001  -0.000000  -0.000245
   31  AS 1 XY    0.000000  -0.000028   0.000379   0.000000   0.006286
   32  AS 1 XZ   -0.000001   0.000003  -0.000020   0.000002  -0.000676
   33  AS 1 YZ   -0.000009  -0.000020  -0.000003   0.000000   0.004485
   34  AS 1 XX   -0.000015  -0.000215  -0.000016  -0.000000   0.000452
   35  AS 1 YY   -0.000015   0.000214   0.000016  -0.000000  -0.000446
   36  AS 1 ZZ    0.000030   0.000001   0.000000   0.000000  -0.000006
   37  AS 1 XY   -0.000000  -0.000018   0.000245  -0.000000   0.000039
   38  AS 1 XZ    0.000000   0.000002  -0.000013  -0.000001  -0.000004
   39  AS 1 YZ    0.000003  -0.000013  -0.000002  -0.000000   0.000027
   40  AS 1 XXX   0.000049   0.000053   0.000004   0.000001   0.000444
   41  AS 1 YYY   0.000000  -0.000004   0.000052   0.000017  -0.000034
   42  AS 1 ZZZ  -0.000000   0.000000   0.000011  -0.000213   0.000000
   43  AS 1 XXY   0.000000  -0.000002   0.000024   0.000008  -0.000013
   44  AS 1 XXZ  -0.000000  -0.000001  -0.000001   0.000144  -0.000008
   45  AS 1 YYX  -0.000066   0.000024   0.000002   0.000001   0.000186
   46  AS 1 YYZ   0.000000   0.000001  -0.000014   0.000142   0.000008
   47  AS 1 ZZX  -0.000000  -0.000095  -0.000007  -0.000002  -0.000781
   48  AS 1 ZZY  -0.000000   0.000007  -0.000094  -0.000031   0.000058
   49  AS 1 XYZ   0.000004  -0.000007  -0.000001  -0.000000  -0.000060
   50  H  2  S    0.000002  -0.000241   0.000354  -0.000000  -0.003106
   51  H  2  S    0.000332  -0.001116   0.001642   0.000000  -0.001514
   52  H  2  S   -0.000675   0.000390  -0.000575   0.000000  -0.000964
   53  H  2  X   -0.000004   0.000008   0.000026   0.000000  -0.000772
   54  H  2  Y    0.000007   0.000026  -0.000017   0.000001   0.000599
   55  H  2  Z   -0.000000  -0.000001   0.000001   0.000011  -0.000029
   56  H  2  X    0.000006  -0.000064   0.000259   0.000000  -0.000689
   57  H  2  Y   -0.000009   0.000287  -0.000328   0.000007  -0.000476
   58  H  2  Z    0.000000  -0.000015   0.000017   0.000123   0.000028
   59  H  2 XX   -0.000004   0.000003  -0.000052  -0.000000  -0.000103
   60  H  2 YY    0.000024  -0.000053   0.000126   0.000003  -0.000166
   61  H  2 ZZ   -0.000021   0.000050  -0.000074  -0.000003   0.000269
   62  H  2 XY   -0.000028   0.000115  -0.000137  -0.000001   0.000573
   63  H  2 XZ    0.000001  -0.000006   0.000007  -0.000018  -0.000029
   64  H  2 YZ   -0.000003   0.000006  -0.000012   0.000030   0.000025
   65  H  3  S    0.000002  -0.000185  -0.000385   0.000000  -0.002394
   66  H  3  S    0.000332  -0.000859  -0.001788  -0.000000  -0.001170
   67  H  3  S   -0.000675   0.000300   0.000626  -0.000000  -0.000743
   68  H  3  X   -0.000004   0.000012  -0.000024   0.000000  -0.000697
   69  H  3  Y   -0.000007  -0.000023  -0.000020   0.000001  -0.000403
   70  H  3  Z    0.000000   0.000001   0.000001   0.000011   0.000024
   71  H  3  X    0.000006  -0.000025  -0.000265   0.000000  -0.000764
   72  H  3  Y    0.000009  -0.000235  -0.000367   0.000007   0.000500
   73  H  3  Z   -0.000001   0.000013   0.000021   0.000123  -0.000024
   74  H  3 XX   -0.000004  -0.000005   0.000052  -0.000000  -0.000141
   75  H  3 YY    0.000024  -0.000034  -0.000132  -0.000003  -0.000067
   76  H  3 ZZ   -0.000020   0.000039   0.000080   0.000003   0.000207
   77  H  3 XY    0.000028  -0.000093  -0.000152  -0.000001  -0.000482
   78  H  3 XZ   -0.000002   0.000005   0.000008  -0.000018   0.000027
   79  H  3 YZ   -0.000003   0.000005   0.000014  -0.000030   0.000019
   80  H  4  S    0.000002   0.000428   0.000032  -0.000000   0.005516
   81  H  4  S    0.000334   0.001986   0.000148   0.000000   0.002656
   82  H  4  S   -0.000677  -0.000693  -0.000052   0.000000   0.001709
   83  H  4  X    0.000007  -0.000037  -0.000003   0.000000  -0.001612
   84  H  4  Y   -0.000000  -0.000002   0.000024   0.000001   0.000033
   85  H  4  Z   -0.000000   0.000000  -0.000001   0.000011   0.000005
   86  H  4  X   -0.000011  -0.000500  -0.000037   0.000000   0.000131
   87  H  4  Y    0.000000  -0.000008   0.000107   0.000007   0.000075
   88  H  4  Z    0.000000   0.000002  -0.000006   0.000124  -0.000005
   89  H  4 XX    0.000040   0.000227   0.000017   0.000000   0.001034
   90  H  4 YY   -0.000018  -0.000135  -0.000010   0.000000  -0.000552
   91  H  4 ZZ   -0.000021  -0.000092  -0.000007  -0.000000  -0.000482
   92  H  4 XY   -0.000000  -0.000003   0.000035   0.000002  -0.000023
   93  H  4 XZ   -0.000000  -0.000001  -0.000002   0.000035  -0.000006
   94  H  4 YZ   -0.000000   0.000003   0.000000  -0.000000   0.000004

                     11         12         13         14         15
                   -2.4337    -2.4296    -2.4287    -2.4287     1.9719
                     A          A          A          A          A   
    1  AS 1  S   -0.000000  -0.000096   0.000000  -0.000000   0.000446
    2  AS 1  S   -0.000001  -0.000643   0.000000  -0.000000   0.002683
    3  AS 1  S   -0.000002  -0.001506   0.000000  -0.000000   0.004445
    4  AS 1  S    0.000000  -0.003252  -0.000000   0.000000   0.556965
    5  AS 1  S    0.000002   0.000600   0.000000   0.000000   0.235479
    6  AS 1  S    0.000001   0.003473  -0.000000   0.000000   0.131062
    7  AS 1  X   -0.000016  -0.000000  -0.000000  -0.000000  -0.000009
    8  AS 1  Y   -0.000215  -0.000000  -0.000000  -0.000000  -0.000001
    9  AS 1  Z    0.000012   0.000000  -0.000001  -0.000000   0.000000
   10  AS 1  X   -0.000079  -0.000001  -0.000000  -0.000000  -0.000113
   11  AS 1  Y   -0.001057  -0.000000  -0.000001  -0.000000  -0.000017
   12  AS 1  Z    0.000057   0.000000  -0.000010  -0.000002   0.000001
   13  AS 1  X   -0.000345  -0.000011  -0.000000   0.000000   0.000096
   14  AS 1  Y   -0.004626  -0.000002   0.000000   0.000000   0.000014
   15  AS 1  Z    0.000250   0.000000   0.000000   0.000000  -0.000001
   16  AS 1  X    0.000141   0.000002   0.000000   0.000000   0.000118
   17  AS 1  Y    0.001886   0.000000   0.000001   0.000000   0.000018
   18  AS 1  Z   -0.000102  -0.000000   0.000011   0.000002  -0.000001
   19  AS 1  X    0.000190   0.000002   0.000000   0.000000  -0.000009
   20  AS 1  Y    0.002552   0.000000   0.000000   0.000000  -0.000001
   21  AS 1  Z   -0.000138  -0.000000   0.000003   0.000001   0.000000
   22  AS 1 XX   -0.062498  -0.483645   0.006700   0.000511  -0.014292
   23  AS 1 YY    0.061865  -0.480260  -0.006815   0.089444  -0.014145
   24  AS 1 ZZ    0.000633   0.963905   0.000115  -0.089954   0.028436
   25  AS 1 XY    0.962636   0.000294   0.051420   0.007792   0.000013
   26  AS 1 XZ   -0.051340   0.006710   0.964197   0.073054   0.000198
   27  AS 1 YZ   -0.007687   0.089701  -0.073361   0.960020   0.002644
   28  AS 1 XX   -0.005471  -0.041076   0.000569   0.000043   0.008449
   29  AS 1 YY    0.005416  -0.040785  -0.000579   0.007593   0.008358
   30  AS 1 ZZ    0.000056   0.081861   0.000010  -0.007636  -0.016806
   31  AS 1 XY    0.084269   0.000025   0.004365   0.000661  -0.000008
   32  AS 1 XZ   -0.004494   0.000570   0.081852   0.006202  -0.000117
   33  AS 1 YZ   -0.000673   0.007618  -0.006228   0.081496  -0.001563
   34  AS 1 XX   -0.000034  -0.000678   0.000007   0.000000   0.004353
   35  AS 1 YY    0.000032  -0.000660  -0.000007   0.000089   0.004340
   36  AS 1 ZZ    0.000001   0.001337   0.000000  -0.000089  -0.008693
   37  AS 1 XY    0.000509   0.000002   0.000051   0.000008  -0.000001
   38  AS 1 XZ   -0.000027   0.000009   0.000960   0.000073  -0.000061
   39  AS 1 YZ   -0.000004   0.000124  -0.000073   0.000955  -0.000810
   40  AS 1 XXX  -0.000034  -0.001017   0.000002   0.000000   0.013451
   41  AS 1 YYY  -0.000436  -0.000001  -0.000028  -0.000002   0.000006
   42  AS 1 ZZZ  -0.000094  -0.000000  -0.000004  -0.000001   0.000001
   43  AS 1 XXY  -0.000186  -0.000000   0.000013  -0.000001   0.000002
   44  AS 1 XXZ   0.000011   0.000006   0.000240   0.000018  -0.000073
   45  AS 1 YYX  -0.000012   0.001355   0.000001  -0.000025  -0.017980
   46  AS 1 YYZ   0.000115  -0.000005  -0.000235  -0.000017   0.000071
   47  AS 1 ZZX   0.000058   0.000009  -0.000004   0.000025  -0.000067
   48  AS 1 ZZY   0.000771   0.000001   0.000025   0.000004  -0.000010
   49  AS 1 XYZ   0.000009  -0.000084   0.000021  -0.000267   0.001112
   50  H  2  S   -0.004547  -0.002798   0.000000   0.000000   0.074390
   51  H  2  S   -0.002210  -0.000906   0.000000   0.000000   0.107556
   52  H  2  S   -0.001423  -0.000355   0.000000   0.000000   0.010159
   53  H  2  X   -0.000443  -0.000440  -0.000001   0.000001   0.003482
   54  H  2  Y    0.001272   0.000763  -0.000013   0.000019  -0.006029
   55  H  2  Z   -0.000066  -0.000039  -0.000248   0.000363   0.000309
   56  H  2  X    0.000549   0.000061  -0.000003   0.000004   0.006368
   57  H  2  Y    0.000196  -0.000109  -0.000035   0.000051  -0.011007
   58  H  2  Z   -0.000013   0.000006  -0.000644   0.000945   0.000565
   59  H  2 XX    0.000261  -0.000016  -0.000000   0.000002   0.000017
   60  H  2 YY   -0.000654  -0.000382   0.000023  -0.000025   0.001556
   61  H  2 ZZ    0.000393   0.000398  -0.000022   0.000023  -0.001573
   62  H  2 XY    0.000564   0.000367  -0.000001   0.000011  -0.001552
   63  H  2 XZ   -0.000030  -0.000018  -0.000044   0.000222   0.000076
   64  H  2 YZ    0.000063   0.000047   0.000245  -0.000268  -0.000188
   65  H  3  S    0.004954  -0.002795  -0.000000   0.000000   0.074351
   66  H  3  S    0.002413  -0.000909  -0.000000   0.000000   0.107523
   67  H  3  S    0.001550  -0.000355  -0.000000  -0.000000   0.010164
   68  H  3  X    0.000552  -0.000440  -0.000001  -0.000002   0.003479
   69  H  3  Y    0.001345  -0.000762  -0.000010  -0.000021   0.006024
   70  H  3  Z   -0.000074   0.000043  -0.000190  -0.000396  -0.000337
   71  H  3  X   -0.000440   0.000060  -0.000002  -0.000004   0.006363
   72  H  3  Y    0.000125   0.000107  -0.000026  -0.000055   0.011001
   73  H  3  Z   -0.000005  -0.000006  -0.000494  -0.001032  -0.000616
   74  H  3 XX   -0.000242  -0.000016  -0.000000  -0.000002   0.000016
   75  H  3 YY    0.000670  -0.000381  -0.000019  -0.000028   0.001554
   76  H  3 ZZ   -0.000428   0.000397   0.000019   0.000030  -0.001570
   77  H  3 XY    0.000642  -0.000367  -0.000001  -0.000013   0.001549
   78  H  3 XZ   -0.000035   0.000022  -0.000009  -0.000226  -0.000090
   79  H  3 YZ   -0.000071   0.000050  -0.000201  -0.000301  -0.000200
   80  H  4  S   -0.000410  -0.002810  -0.000000   0.000000   0.074593
   81  H  4  S   -0.000197  -0.000888  -0.000000   0.000000   0.107732
   82  H  4  S   -0.000128  -0.000355  -0.000000   0.000000   0.010131
   83  H  4  X    0.000120   0.000888   0.000002   0.000000  -0.006994
   84  H  4  Y    0.000448  -0.000000   0.000024   0.000002   0.000000
   85  H  4  Z   -0.000025  -0.000004   0.000442   0.000034   0.000028
   86  H  4  X   -0.000010  -0.000132   0.000005   0.000000  -0.012758
   87  H  4  Y    0.001010  -0.000000   0.000061   0.000005   0.000002
   88  H  4  Z   -0.000054   0.000001   0.001141   0.000087   0.000051
   89  H  4 XX   -0.000077  -0.000570  -0.000003  -0.000000   0.002353
   90  H  4 YY    0.000041   0.000169  -0.000001   0.000010  -0.000768
   91  H  4 ZZ    0.000036   0.000401   0.000004  -0.000009  -0.001585
   92  H  4 XY   -0.000311   0.000000  -0.000022  -0.000001  -0.000001
   93  H  4 XZ    0.000017   0.000004  -0.000418  -0.000032  -0.000018
   94  H  4 YZ    0.000001   0.000014  -0.000008   0.000102  -0.000051

                     16         17         18         19         20
                    1.7203     1.7202     1.2380     0.2907     0.0295
                     A          A          A          A          A   
    1  AS 1  S   -0.000004  -0.000001   0.000000   0.001260   0.000011
    2  AS 1  S   -0.000026  -0.000006   0.000000   0.009572   0.000080
    3  AS 1  S   -0.000108  -0.000025   0.000000   0.063256   0.000359
    4  AS 1  S   -0.000429  -0.000098   0.000000   0.491482   0.000984
    5  AS 1  S   -0.000144  -0.000033   0.000000   0.249984   0.000410
    6  AS 1  S   -0.000411  -0.000094  -0.000000   0.658988  -0.000095
    7  AS 1  X   -0.003981  -0.000303  -0.000001  -0.000011   0.001022
    8  AS 1  Y    0.000304  -0.003967  -0.000013  -0.000002   0.014105
    9  AS 1  Z   -0.000000   0.000214  -0.000248   0.000000  -0.000761
   10  AS 1  X   -0.053027  -0.004034  -0.000005  -0.000180   0.013807
   11  AS 1  Y    0.004046  -0.052853  -0.000063  -0.000027   0.190533
   12  AS 1  Z   -0.000004   0.002851  -0.001180   0.000002  -0.010275
   13  AS 1  X    0.363157   0.027681   0.002457  -0.002555   0.070639
   14  AS 1  Y   -0.027714   0.362715   0.032840  -0.000383   0.974789
   15  AS 1  Z    0.000029  -0.019565   0.612287   0.000031  -0.052567
   16  AS 1  X    0.166532   0.012687   0.000908  -0.000901   0.019043
   17  AS 1  Y   -0.012708   0.166245   0.012143  -0.000135   0.262784
   18  AS 1  Z    0.000013  -0.008967   0.226414   0.000011  -0.014171
   19  AS 1  X    0.065786   0.005023   0.001182  -0.001978   0.015286
   20  AS 1  Y   -0.005021   0.065818   0.015798  -0.000297   0.210916
   21  AS 1  Z    0.000005  -0.003550   0.294556   0.000024  -0.011373
   22  AS 1 XX   -0.053536  -0.004088  -0.000000   0.057348   0.007602
   23  AS 1 YY    0.053325   0.004040  -0.000000   0.057773  -0.007387
   24  AS 1 ZZ    0.000211   0.000048   0.000000  -0.115121  -0.000215
   25  AS 1 XY   -0.004708   0.061484  -0.000000   0.000037  -0.119412
   26  AS 1 XZ    0.000501  -0.003279  -0.000016  -0.000803   0.006381
   27  AS 1 YZ   -0.003280  -0.000496  -0.000002  -0.010739   0.000929
   28  AS 1 XX    0.028291   0.002159   0.000000  -0.047495  -0.004431
   29  AS 1 YY   -0.028180  -0.002134  -0.000000  -0.047736   0.004297
   30  AS 1 ZZ   -0.000111  -0.000025   0.000000   0.095231   0.000135
   31  AS 1 XY    0.002488  -0.032473  -0.000001  -0.000021   0.069524
   32  AS 1 XZ   -0.000265   0.001731  -0.000005   0.000664  -0.003727
   33  AS 1 YZ    0.001733   0.000262  -0.000001   0.008880  -0.000542
   34  AS 1 XX    0.021247   0.001622  -0.000000  -0.091632   0.002951
   35  AS 1 YY   -0.021157  -0.001601  -0.000001  -0.092177  -0.002960
   36  AS 1 ZZ   -0.000090  -0.000021   0.000001   0.183809   0.000010
   37  AS 1 XY    0.001868  -0.024383  -0.000004  -0.000047  -0.047118
   38  AS 1 XZ   -0.000199   0.001299  -0.000031   0.001282   0.002488
   39  AS 1 YZ    0.001300   0.000196  -0.000005   0.017142   0.000371
   40  AS 1 XXX   0.007814   0.000598   0.000086  -0.043888  -0.000521
   41  AS 1 YYY  -0.000594   0.007700   0.001142  -0.000006  -0.006161
   42  AS 1 ZZZ  -0.000003   0.001672  -0.014150   0.000001  -0.001349
   43  AS 1 XXY  -0.000263   0.003430   0.000513  -0.000002  -0.002836
   44  AS 1 XXZ  -0.000140  -0.000196   0.009558   0.000236   0.000161
   45  AS 1 YYX   0.003409   0.000248   0.000038   0.058818  -0.000106
   46  AS 1 YYZ   0.000143  -0.002047   0.009427  -0.000237   0.001649
   47  AS 1 ZZX  -0.013892  -0.001050  -0.000153   0.000065   0.000805
   48  AS 1 ZZY   0.001060  -0.013760  -0.002044   0.000010   0.011101
   49  AS 1 XYZ  -0.001068  -0.000161  -0.000011  -0.003650   0.000122
   50  H  2  S   -0.091603   0.133936  -0.000000  -0.139639  -0.220673
   51  H  2  S   -0.160676   0.234927  -0.000001  -0.326581  -0.632280
   52  H  2  S   -0.045748   0.066976   0.000001  -0.302661  -0.058017
   53  H  2  X   -0.001841   0.005665   0.000018   0.000551  -0.000992
   54  H  2  Y    0.006388  -0.007628   0.000242  -0.001026   0.009683
   55  H  2  Z   -0.000335   0.000386   0.004504   0.000053  -0.000515
   56  H  2  X   -0.003615   0.014006   0.000093  -0.000476  -0.036681
   57  H  2  Y    0.015650  -0.017855   0.001239   0.000563   0.106027
   58  H  2  Z   -0.000825   0.000901   0.023096  -0.000027  -0.005536
   59  H  2 XX    0.001420   0.000314   0.000009  -0.000484   0.003041
   60  H  2 YY   -0.002666   0.001519  -0.000213   0.000006  -0.009569
   61  H  2 ZZ    0.001246  -0.001833   0.000204   0.000478   0.006528
   62  H  2 XY    0.001112  -0.003225   0.000062  -0.000440   0.005748
   63  H  2 XZ   -0.000060   0.000163   0.001324   0.000028  -0.000292
   64  H  2 YZ    0.000239  -0.000195  -0.002286   0.000031   0.000976
   65  H  3  S   -0.070201  -0.146257   0.000000  -0.139810   0.239315
   66  H  3  S   -0.123161  -0.256588   0.000001  -0.327057   0.686230
   67  H  3  S   -0.035061  -0.073141  -0.000001  -0.303208   0.063449
   68  H  3  X   -0.000960  -0.005876   0.000018   0.000558   0.002127
   69  H  3  Y   -0.005154  -0.008505   0.000241   0.001027   0.009864
   70  H  3  Z    0.000280   0.000480   0.004502  -0.000057  -0.000537
   71  H  3  X   -0.001451  -0.014392   0.000093  -0.000466   0.045490
   72  H  3  Y   -0.012758  -0.020024   0.001239  -0.000587   0.111784
   73  H  3  Z    0.000690   0.001132   0.023094   0.000032  -0.006174
   74  H  3 XX    0.001450  -0.000094   0.000009  -0.000481  -0.002511
   75  H  3 YY   -0.002403  -0.001905   0.000213   0.000005   0.009583
   76  H  3 ZZ    0.000954   0.001999  -0.000222   0.000476  -0.007071
   77  H  3 XY   -0.000611  -0.003355   0.000080   0.000444   0.006764
   78  H  3 XZ    0.000030   0.000190   0.001322  -0.000019  -0.000384
   79  H  3 YZ    0.000211   0.000256   0.002285   0.000027  -0.001061
   80  H  4  S    0.161970   0.012358  -0.000000  -0.138737  -0.019548
   81  H  4  S    0.283806   0.021654  -0.000000  -0.324077  -0.055774
   82  H  4  S    0.080866   0.006178   0.000000  -0.299787  -0.004910
   83  H  4  X   -0.011430  -0.000872   0.000018  -0.001140   0.000798
   84  H  4  Y   -0.000148   0.001941   0.000242  -0.000006   0.007128
   85  H  4  Z    0.000054  -0.000101   0.004518   0.000005  -0.000386
   86  H  4  X   -0.027131  -0.002071   0.000093   0.000640   0.009721
   87  H  4  Y   -0.000435   0.005685   0.001239  -0.000021   0.037897
   88  H  4  Z    0.000132  -0.000297   0.023106  -0.000001  -0.002074
   89  H  4 XX    0.004398   0.000337  -0.000018   0.000199  -0.000951
   90  H  4 YY   -0.002177  -0.000166  -0.000000  -0.000684   0.000369
   91  H  4 ZZ   -0.002220  -0.000170   0.000018   0.000484   0.000582
   92  H  4 XY    0.000139  -0.001805  -0.000142   0.000004  -0.006106
   93  H  4 XZ   -0.000038   0.000094  -0.002651   0.000001   0.000335
   94  H  4 YZ   -0.000003   0.000007   0.000001   0.000072   0.000038

                     21
                    0.0294
                     A   
    1  AS 1  S    0.000051
    2  AS 1  S    0.000355
    3  AS 1  S    0.001595
    4  AS 1  S    0.004372
    5  AS 1  S    0.001821
    6  AS 1  S   -0.000426
    7  AS 1  X    0.014171
    8  AS 1  Y   -0.001027
    9  AS 1  Z   -0.000002
   10  AS 1  X    0.191376
   11  AS 1  Y   -0.013871
   12  AS 1  Z   -0.000024
   13  AS 1  X    0.977195
   14  AS 1  Y   -0.070828
   15  AS 1  Z   -0.000122
   16  AS 1  X    0.263229
   17  AS 1  Y   -0.019079
   18  AS 1  Z   -0.000033
   19  AS 1  X    0.210872
   20  AS 1  Y   -0.015283
   21  AS 1  Z   -0.000026
   22  AS 1 XX    0.104081
   23  AS 1 YY   -0.103126
   24  AS 1 ZZ   -0.000955
   25  AS 1 XY    0.008670
   26  AS 1 XZ   -0.000952
   27  AS 1 YZ    0.006323
   28  AS 1 XX   -0.060375
   29  AS 1 YY    0.059780
   30  AS 1 ZZ    0.000596
   31  AS 1 XY   -0.005027
   32  AS 1 XZ    0.000554
   33  AS 1 YZ   -0.003675
   34  AS 1 XX    0.041361
   35  AS 1 YY   -0.041398
   36  AS 1 ZZ    0.000037
   37  AS 1 XY    0.003465
   38  AS 1 XZ   -0.000373
   39  AS 1 YZ    0.002534
   40  AS 1 XXX  -0.006525
   41  AS 1 YYY   0.000440
   42  AS 1 ZZZ  -0.000003
   43  AS 1 XXY   0.000215
   44  AS 1 XXZ   0.000113
   45  AS 1 YYX  -0.002353
   46  AS 1 YYZ  -0.000109
   47  AS 1 ZZX   0.011107
   48  AS 1 ZZY  -0.000805
   49  AS 1 XYZ   0.000833
   50  H  2  S    0.148305
   51  H  2  S    0.426179
   52  H  2  S    0.039809
   53  H  2  X    0.008100
   54  H  2  Y   -0.002227
   55  H  2  Z    0.000086
   56  H  2  X    0.064528
   57  H  2  Y   -0.048790
   58  H  2  Z    0.002354
   59  H  2 XX    0.003471
   60  H  2 YY    0.000925
   61  H  2 ZZ   -0.004396
   62  H  2 XY   -0.007594
   63  H  2 XZ    0.000370
   64  H  2 YZ   -0.000299
   65  H  3  S    0.114924
   66  H  3  S    0.330509
   67  H  3  S    0.031105
   68  H  3  X    0.007859
   69  H  3  Y    0.000798
   70  H  3  Z   -0.000074
   71  H  3  X    0.058523
   72  H  3  Y    0.032935
   73  H  3  Z   -0.001998
   74  H  3 XX    0.003874
   75  H  3 YY   -0.000471
   76  H  3 ZZ   -0.003403
   77  H  3 XY    0.006677
   78  H  3 XZ   -0.000392
   79  H  3 YZ   -0.000208
   80  H  4  S   -0.267257
   81  H  4  S   -0.764791
   82  H  4  S   -0.068589
   83  H  4  X    0.010929
   84  H  4  Y   -0.000519
   85  H  4  Z   -0.000016
   86  H  4  X    0.133775
   87  H  4  Y   -0.002761
   88  H  4  Z   -0.000388
   89  H  4 XX   -0.013086
   90  H  4 YY    0.005117
   91  H  4 ZZ    0.007969
   92  H  4 XY    0.000444
   93  H  4 XZ    0.000074
   94  H  4 YZ    0.000175

          ------------------------
          MCSCF OPTIMIZED ORBITALS
          ------------------------

                      1          2          3          4          5
                 -432.8955   -56.6209   -50.4654   -50.4653   -50.4653
                     A          A          A          A          A   
    1  AS 1  S    0.999999   0.000003  -0.000000  -0.000000  -0.000000
    2  AS 1  S    0.000001   1.000103   0.000000   0.000000   0.000000
    3  AS 1  S   -0.000004   0.000134  -0.000000  -0.000000  -0.000001
    4  AS 1  S   -0.000005   0.000143  -0.000000  -0.000000  -0.000001
    5  AS 1  S    0.000016  -0.000426  -0.000000  -0.000000  -0.000000
    6  AS 1  S    0.000005  -0.000140  -0.000000  -0.000000  -0.000000
    7  AS 1  X    0.000000  -0.000000   0.004009   0.073203   0.997334
    8  AS 1  Y    0.000000  -0.000000   0.053593   0.995893  -0.073313
    9  AS 1  Z   -0.000000   0.000000   0.998580  -0.053742  -0.000069
   10  AS 1  X    0.000000   0.000000   0.000000  -0.000000  -0.000003
   11  AS 1  Y    0.000000   0.000000   0.000000  -0.000002   0.000000
   12  AS 1  Z    0.000000  -0.000000   0.000001   0.000000   0.000000
   13  AS 1  X    0.000000  -0.000000  -0.000000  -0.000006  -0.000088
   14  AS 1  Y    0.000000  -0.000000  -0.000000  -0.000087   0.000006
   15  AS 1  Z    0.000000   0.000000  -0.000002   0.000005   0.000000
   16  AS 1  X    0.000000  -0.000000  -0.000002  -0.000037  -0.000499
   17  AS 1  Y    0.000000  -0.000000  -0.000024  -0.000498   0.000037
   18  AS 1  Z   -0.000000   0.000000  -0.000446   0.000027   0.000000
   19  AS 1  X    0.000000  -0.000000  -0.000000  -0.000007  -0.000090
   20  AS 1  Y    0.000000  -0.000000  -0.000004  -0.000090   0.000007
   21  AS 1  Z   -0.000000   0.000000  -0.000069   0.000005   0.000000
   22  AS 1 XX    0.000000  -0.000001   0.000000   0.000000   0.000002
   23  AS 1 YY    0.000000  -0.000001  -0.000000  -0.000000  -0.000002
   24  AS 1 ZZ   -0.000000   0.000001  -0.000000  -0.000000  -0.000000
   25  AS 1 XY   -0.000000   0.000000  -0.000000  -0.000002   0.000000
   26  AS 1 XZ   -0.000000   0.000000   0.000000   0.000000  -0.000000
   27  AS 1 YZ   -0.000000   0.000000  -0.000000   0.000000   0.000000
   28  AS 1 XX    0.000000  -0.000002  -0.000000  -0.000004  -0.000056
   29  AS 1 YY    0.000000  -0.000002   0.000000   0.000004   0.000055
   30  AS 1 ZZ   -0.000000   0.000004   0.000000   0.000000   0.000000
   31  AS 1 XY   -0.000000   0.000000   0.000000   0.000064  -0.000005
   32  AS 1 XZ   -0.000000   0.000000  -0.000000  -0.000003   0.000001
   33  AS 1 YZ   -0.000000   0.000000  -0.000000  -0.000000  -0.000003
   34  AS 1 XX    0.000000  -0.000002  -0.000000  -0.000001  -0.000016
   35  AS 1 YY    0.000000  -0.000002   0.000000   0.000001   0.000016
   36  AS 1 ZZ   -0.000000   0.000004  -0.000000   0.000000   0.000000
   37  AS 1 XY   -0.000000   0.000000   0.000000   0.000018  -0.000001
   38  AS 1 XZ   -0.000000   0.000000  -0.000000  -0.000001   0.000000
   39  AS 1 YZ   -0.000000   0.000000  -0.000000  -0.000000  -0.000001
   40  AS 1 XXX   0.000000  -0.000006   0.000000  -0.000001  -0.000013
   41  AS 1 YYY   0.000000  -0.000000   0.000000  -0.000013   0.000001
   42  AS 1 ZZZ   0.000000  -0.000000  -0.000000  -0.000003  -0.000000
   43  AS 1 XXY   0.000000  -0.000000   0.000000  -0.000006   0.000000
   44  AS 1 XXZ  -0.000000   0.000000   0.000000   0.000000   0.000000
   45  AS 1 YYX  -0.000000   0.000008   0.000000  -0.000000  -0.000006
   46  AS 1 YYZ   0.000000  -0.000000   0.000000   0.000003  -0.000000
   47  AS 1 ZZX  -0.000000   0.000000  -0.000000   0.000002   0.000023
   48  AS 1 ZZY  -0.000000   0.000000  -0.000000   0.000023  -0.000002
   49  AS 1 XYZ   0.000000  -0.000001   0.000000   0.000000   0.000002
   50  H  2  S   -0.000000   0.000006  -0.000000  -0.000012   0.000008
   51  H  2  S   -0.000000   0.000011   0.000000   0.000057  -0.000039
   52  H  2  S   -0.000001   0.000029   0.000000   0.000039  -0.000026
   53  H  2  X   -0.000000   0.000002   0.000000   0.000007  -0.000005
   54  H  2  Y    0.000000  -0.000003   0.000000  -0.000012   0.000008
   55  H  2  Z   -0.000000   0.000000   0.000001   0.000001  -0.000000
   56  H  2  X   -0.000000   0.000004  -0.000000   0.000029  -0.000021
   57  H  2  Y    0.000000  -0.000008  -0.000000  -0.000051   0.000034
   58  H  2  Z   -0.000000   0.000000  -0.000005   0.000003  -0.000002
   59  H  2 XX    0.000000  -0.000001   0.000000  -0.000002   0.000005
   60  H  2 YY   -0.000000   0.000005  -0.000000   0.000020  -0.000017
   61  H  2 ZZ    0.000000  -0.000004   0.000000  -0.000018   0.000012
   62  H  2 XY    0.000000  -0.000006   0.000000  -0.000027   0.000016
   63  H  2 XZ   -0.000000   0.000000   0.000003   0.000001  -0.000001
   64  H  2 YZ    0.000000  -0.000001  -0.000005  -0.000002   0.000002
   65  H  3  S   -0.000000   0.000006   0.000000   0.000013   0.000006
   66  H  3  S   -0.000000   0.000011  -0.000000  -0.000062  -0.000030
   67  H  3  S   -0.000001   0.000029  -0.000000  -0.000042  -0.000020
   68  H  3  X   -0.000000   0.000002   0.000000  -0.000007  -0.000004
   69  H  3  Y   -0.000000   0.000003   0.000000  -0.000013  -0.000006
   70  H  3  Z    0.000000  -0.000000   0.000001   0.000001   0.000000
   71  H  3  X   -0.000000   0.000004  -0.000000  -0.000031  -0.000017
   72  H  3  Y   -0.000000   0.000008  -0.000000  -0.000056  -0.000026
   73  H  3  Z    0.000000  -0.000000  -0.000005   0.000003   0.000001
   74  H  3 XX    0.000000  -0.000001   0.000000   0.000003   0.000005
   75  H  3 YY   -0.000000   0.000005   0.000000  -0.000022  -0.000014
   76  H  3 ZZ    0.000000  -0.000004  -0.000001   0.000020   0.000009
   77  H  3 XY   -0.000000   0.000006   0.000000  -0.000029  -0.000012
   78  H  3 XZ    0.000000  -0.000000   0.000003   0.000002   0.000001
   79  H  3 YZ    0.000000  -0.000001   0.000005   0.000003   0.000002
   80  H  4  S   -0.000000   0.000006  -0.000000  -0.000001  -0.000014
   81  H  4  S   -0.000000   0.000012   0.000000   0.000005   0.000070
   82  H  4  S   -0.000001   0.000029   0.000000   0.000003   0.000047
   83  H  4  X    0.000000  -0.000004   0.000000  -0.000001  -0.000017
   84  H  4  Y    0.000000   0.000000   0.000000  -0.000001   0.000000
   85  H  4  Z   -0.000000   0.000000   0.000001   0.000000   0.000000
   86  H  4  X    0.000000  -0.000009  -0.000000  -0.000005  -0.000071
   87  H  4  Y    0.000000  -0.000000  -0.000000  -0.000002   0.000000
   88  H  4  Z   -0.000000   0.000000  -0.000005   0.000000   0.000000
   89  H  4 XX   -0.000000   0.000008  -0.000000   0.000003   0.000042
   90  H  4 YY    0.000000  -0.000004  -0.000000  -0.000001  -0.000020
   91  H  4 ZZ    0.000000  -0.000004   0.000000  -0.000002  -0.000022
   92  H  4 XY   -0.000000   0.000000  -0.000000  -0.000004   0.000000
   93  H  4 XZ    0.000000  -0.000000  -0.000006   0.000000  -0.000000
   94  H  4 YZ   -0.000000   0.000000   0.000000   0.000000  -0.000000

                      6          7          8          9         10
                   -8.3449    -6.1997    -6.1997    -6.1963    -2.4337
                     A          A          A          A          A   
    1  AS 1  S   -0.000085  -0.000000  -0.000000   0.000000   0.000000
    2  AS 1  S   -0.000608  -0.000003  -0.000001  -0.000000   0.000003
    3  AS 1  S    0.975261  -0.000020  -0.000005   0.000000   0.000007
    4  AS 1  S   -0.001918  -0.000013  -0.000003  -0.000000  -0.000001
    5  AS 1  S    0.036268   0.000006   0.000001   0.000000  -0.000010
    6  AS 1  S    0.004129   0.000004   0.000001  -0.000000  -0.000005
    7  AS 1  X   -0.000000  -0.000105  -0.000008   0.000000   0.000215
    8  AS 1  Y   -0.000000   0.000008  -0.000105   0.000002  -0.000016
    9  AS 1  Z    0.000000   0.000000   0.000006   0.000032  -0.000000
   10  AS 1  X    0.000007   0.971699   0.072340   0.003909   0.001041
   11  AS 1  Y    0.000001  -0.072445   0.970296   0.052252  -0.000078
   12  AS 1  Z   -0.000000  -0.000013  -0.052329   0.974272  -0.000000
   13  AS 1  X   -0.000002  -0.000993  -0.000074   0.000002   0.004628
   14  AS 1  Y   -0.000000   0.000074  -0.000992   0.000023  -0.000345
   15  AS 1  Z    0.000000   0.000000   0.000054   0.000431  -0.000000
   16  AS 1  X    0.000002   0.047662   0.003548   0.000187  -0.001882
   17  AS 1  Y    0.000000  -0.003553   0.047596   0.002498   0.000140
   18  AS 1  Z   -0.000000  -0.000001  -0.002567   0.046574   0.000000
   19  AS 1  X    0.000002   0.002060   0.000154   0.000007  -0.002550
   20  AS 1  Y    0.000000  -0.000154   0.002059   0.000088   0.000190
   21  AS 1  Z   -0.000000  -0.000000  -0.000111   0.001650   0.000000
   22  AS 1 XX    0.000324   0.000611   0.000045   0.000000   0.835055
   23  AS 1 YY    0.000319  -0.000605  -0.000044   0.000000  -0.832274
   24  AS 1 ZZ   -0.000643  -0.000006  -0.000001  -0.000000  -0.002781
   25  AS 1 XY   -0.000000   0.000052  -0.000692   0.000000   0.071800
   26  AS 1 XZ   -0.000004  -0.000006   0.000037   0.000003  -0.007721
   27  AS 1 YZ   -0.000060   0.000037   0.000005   0.000000   0.051229
   28  AS 1 XX    0.000050  -0.000328  -0.000025   0.000000   0.073103
   29  AS 1 YY    0.000051   0.000326   0.000024   0.000000  -0.072858
   30  AS 1 ZZ   -0.000101   0.000002   0.000001  -0.000000  -0.000245
   31  AS 1 XY    0.000000  -0.000028   0.000379   0.000000   0.006286
   32  AS 1 XZ   -0.000001   0.000003  -0.000020   0.000002  -0.000676
   33  AS 1 YZ   -0.000009  -0.000020  -0.000003   0.000000   0.004485
   34  AS 1 XX   -0.000015  -0.000215  -0.000016  -0.000000   0.000452
   35  AS 1 YY   -0.000015   0.000214   0.000016  -0.000000  -0.000446
   36  AS 1 ZZ    0.000030   0.000001   0.000000   0.000000  -0.000006
   37  AS 1 XY   -0.000000  -0.000018   0.000245  -0.000000   0.000039
   38  AS 1 XZ    0.000000   0.000002  -0.000013  -0.000001  -0.000004
   39  AS 1 YZ    0.000003  -0.000013  -0.000002  -0.000000   0.000027
   40  AS 1 XXX   0.000049   0.000053   0.000004   0.000001   0.000444
   41  AS 1 YYY   0.000000  -0.000004   0.000052   0.000017  -0.000034
   42  AS 1 ZZZ  -0.000000   0.000000   0.000011  -0.000213   0.000000
   43  AS 1 XXY   0.000000  -0.000002   0.000024   0.000008  -0.000013
   44  AS 1 XXZ  -0.000000  -0.000001  -0.000001   0.000144  -0.000008
   45  AS 1 YYX  -0.000066   0.000024   0.000002   0.000001   0.000186
   46  AS 1 YYZ   0.000000   0.000001  -0.000014   0.000142   0.000008
   47  AS 1 ZZX  -0.000000  -0.000095  -0.000007  -0.000002  -0.000781
   48  AS 1 ZZY  -0.000000   0.000007  -0.000094  -0.000031   0.000058
   49  AS 1 XYZ   0.000004  -0.000007  -0.000001  -0.000000  -0.000060
   50  H  2  S    0.000002  -0.000241   0.000354  -0.000000  -0.003106
   51  H  2  S    0.000332  -0.001116   0.001642   0.000000  -0.001514
   52  H  2  S   -0.000675   0.000390  -0.000575   0.000000  -0.000964
   53  H  2  X   -0.000004   0.000008   0.000026   0.000000  -0.000772
   54  H  2  Y    0.000007   0.000026  -0.000017   0.000001   0.000599
   55  H  2  Z   -0.000000  -0.000001   0.000001   0.000011  -0.000029
   56  H  2  X    0.000006  -0.000064   0.000259   0.000000  -0.000689
   57  H  2  Y   -0.000009   0.000287  -0.000328   0.000007  -0.000476
   58  H  2  Z    0.000000  -0.000015   0.000017   0.000123   0.000028
   59  H  2 XX   -0.000004   0.000003  -0.000052  -0.000000  -0.000103
   60  H  2 YY    0.000024  -0.000053   0.000126   0.000003  -0.000166
   61  H  2 ZZ   -0.000021   0.000050  -0.000074  -0.000003   0.000269
   62  H  2 XY   -0.000028   0.000115  -0.000137  -0.000001   0.000573
   63  H  2 XZ    0.000001  -0.000006   0.000007  -0.000018  -0.000029
   64  H  2 YZ   -0.000003   0.000006  -0.000012   0.000030   0.000025
   65  H  3  S    0.000002  -0.000185  -0.000385   0.000000  -0.002394
   66  H  3  S    0.000332  -0.000859  -0.001788  -0.000000  -0.001170
   67  H  3  S   -0.000675   0.000300   0.000626  -0.000000  -0.000743
   68  H  3  X   -0.000004   0.000012  -0.000024   0.000000  -0.000697
   69  H  3  Y   -0.000007  -0.000023  -0.000020   0.000001  -0.000403
   70  H  3  Z    0.000000   0.000001   0.000001   0.000011   0.000024
   71  H  3  X    0.000006  -0.000025  -0.000265   0.000000  -0.000764
   72  H  3  Y    0.000009  -0.000235  -0.000367   0.000007   0.000500
   73  H  3  Z   -0.000001   0.000013   0.000021   0.000123  -0.000024
   74  H  3 XX   -0.000004  -0.000005   0.000052  -0.000000  -0.000141
   75  H  3 YY    0.000024  -0.000034  -0.000132  -0.000003  -0.000067
   76  H  3 ZZ   -0.000020   0.000039   0.000080   0.000003   0.000207
   77  H  3 XY    0.000028  -0.000093  -0.000152  -0.000001  -0.000482
   78  H  3 XZ   -0.000002   0.000005   0.000008  -0.000018   0.000027
   79  H  3 YZ   -0.000003   0.000005   0.000014  -0.000030   0.000019
   80  H  4  S    0.000002   0.000428   0.000032  -0.000000   0.005516
   81  H  4  S    0.000334   0.001986   0.000148   0.000000   0.002656
   82  H  4  S   -0.000677  -0.000693  -0.000052   0.000000   0.001709
   83  H  4  X    0.000007  -0.000037  -0.000003   0.000000  -0.001612
   84  H  4  Y   -0.000000  -0.000002   0.000024   0.000001   0.000033
   85  H  4  Z   -0.000000   0.000000  -0.000001   0.000011   0.000005
   86  H  4  X   -0.000011  -0.000500  -0.000037   0.000000   0.000131
   87  H  4  Y    0.000000  -0.000008   0.000107   0.000007   0.000075
   88  H  4  Z    0.000000   0.000002  -0.000006   0.000124  -0.000005
   89  H  4 XX    0.000040   0.000227   0.000017   0.000000   0.001034
   90  H  4 YY   -0.000018  -0.000135  -0.000010   0.000000  -0.000552
   91  H  4 ZZ   -0.000021  -0.000092  -0.000007  -0.000000  -0.000482
   92  H  4 XY   -0.000000  -0.000003   0.000035   0.000002  -0.000023
   93  H  4 XZ   -0.000000  -0.000001  -0.000002   0.000035  -0.000006
[...]
      177   -0.120138    0.120138  2+20200
        6    0.117649   -0.117649  22200+0
       74   -0.102010    0.102010  2022+00
       38    0.101849   -0.101849  2202+00
       78   -0.092252    0.092252  20220+0
      248   -0.069431    0.069431  2+02200
      109    0.055880   -0.055880  +-22+00
      822   -0.052837    0.052837  2+02002
      113    0.050795   -0.050795  +-220+0
      122   -0.050780   -0.050780  +2-200+
       86   -0.045793   -0.045793  2+2-00+
      736    0.044447   -0.044447  2+2+00-
       42   -0.043550    0.043550  22020+0
      810    0.039593    0.039593  -++2+0-
       75   -0.039172   -0.039172  -+22+00
       53   -0.036429   -0.036429  2-+200+
      332    0.032244   -0.032244  ++-2-0+
      841    0.029149   -0.029149  +2+200-
      526   -0.028964   -0.028964  ++220-0
      878   -0.028922   -0.028922  ++-2+0-
      458    0.027399   -0.027399  2+02+-0
      809   -0.027318    0.027318  20+2+0-
      323   -0.025922    0.025922  +022-+0
      320   -0.025678   -0.025678  0+22200
      264   -0.025601    0.025601  -++2-0+
      534   -0.025431   -0.025431  0+22020
      894   -0.025409   -0.025409  0+22002
      806    0.025000    0.025000  2++200-
      263    0.024388    0.024388  20+2-0+
      252   -0.024378   -0.024378  2+02-+0
      462   -0.022428    0.022428  2+02020
       79   -0.021831   -0.021831  -+220+0
      529    0.021815    0.021815  +022+-0
       54    0.021631   -0.021631  -2+200+

 ---------------------------------------
      - DIABATIC STATES IN CMO -        
 ---------------------------------------

 State #    1  Energy =   -2235.921410067

      Det      Coef        Coefp    Occupancy (Ignoring core)
      ---      ----        ----    --------- --------- -----
        1   -0.975874    0.975874  222+000
      107    0.073533   -0.073533  +22-+00
      143    0.061251    0.061251  220+200
      179    0.060544    0.060544  202+200
      393    0.059398    0.059398  202+020
      717    0.059087    0.059087  220+002
      211   -0.038266   -0.038266  +22+-00
       36    0.037480    0.037480  22+2000
        5   -0.035267   -0.035267  -22++00
       51    0.033527   -0.033527  22+-00+
       76    0.033506    0.033506  2+2-0+0
      218    0.032642   -0.032642  +-2+-+0
      227    0.032577    0.032577  +2-+-0+
      738    0.031491    0.031491  2+-++0-
      704   -0.031395    0.031395  2-+++0-
      389    0.031232    0.031232  202++-0
      353   -0.031142   -0.031142  220++-0
      215    0.029798    0.029798  022+200
      158    0.029436    0.029436  2-++-0+
      192   -0.029361    0.029361  2+-+-0+
      183   -0.029176    0.029176  202+-+0
      147    0.029096   -0.029096  220+-+0
      390    0.028487   -0.028487  -+2++-0
      705    0.028421    0.028421  -2+++0-
      368   -0.026428   -0.026428  2-++0-+
      742   -0.026424   -0.026424  2+-+0+-
        8   -0.026215    0.026215  2-2+0+0
       17   -0.026108   -0.026108  22-+00+
      424   -0.025819   -0.025819  +-2++-0
      773   -0.025741    0.025741  +2-++0-
      184   -0.024347   -0.024347  -+2+-+0
      159   -0.024264    0.024264  -2++-0+
      753    0.021952    0.021952  202+002
      357    0.021658    0.021658  220+020
      429    0.021560    0.021560  022+020
      789    0.021552    0.021552  022+002

 State #    2  Energy =   -2235.729162271

      Det      Coef        Coefp    Occupancy (Ignoring core)
      ---      ----        ----    --------- --------- -----
        2   -0.951788    0.951788  2220+00
      106   -0.172328   -0.172328  +222000
      156   -0.081597    0.081597  22+0-0+
      181   -0.080513   -0.080513  2+20-+0
      702    0.078447    0.078447  22+0+0-
      387    0.077382   -0.077382  2+20+-0
      212    0.064185    0.064185  +220200
      396    0.061344    0.061344  2020+20
      720    0.061066    0.061066  2200+02
      110    0.057444   -0.057444  0222+00
      391    0.049092   -0.049092  2+20020
      751   -0.048575    0.048575  2+20002
      706   -0.048385   -0.048385  22+00+-
      366    0.048238   -0.048238  22+00-+
       38    0.031289   -0.031289  2202+00
       74    0.031240   -0.031240  2022+00
      161    0.027445    0.027445  2-+020+
      195   -0.027307    0.027307  2+-020+
      186   -0.027222    0.027222  20202+0
      150    0.027169   -0.027169  22002+0
      371   -0.025928   -0.025928  2-+0+-+
      745   -0.025910   -0.025910  2+-0++-
      756    0.025537    0.025537  2020+02
      360    0.025311    0.025311  2200+20
      221    0.022097   -0.022097  +-202+0
      230    0.022053    0.022053  +2-020+
      187   -0.021163   -0.021163  -+202+0
      162   -0.021098    0.021098  -2+020+

 State #    3  Energy =   -2235.693498942

      Det      Coef        Coefp    Occupancy (Ignoring core)
      ---      ----        ----    --------- --------- -----
       36    0.945654    0.945654  22+2000
      142   -0.119882   -0.119882  22+0200
       16    0.117614   -0.117614  222000+
       73   -0.101556    0.101556  2+-2+00
       39    0.101508    0.101508  2-+2+00
       52   -0.092126    0.092126  220200+
       71   -0.086522    0.086522  2+22000
      249   -0.068881    0.068881  20+2200
      108    0.056001    0.056001  +2-2+00
      463   -0.052923    0.052923  20+2020
      123   -0.050466    0.050466  +-2200+
      112   -0.050202   -0.050202  +2-20+0
       88   -0.043641    0.043641  202200+
       40   -0.039621    0.039621  -2+2+00
      460   -0.039517   -0.039517  -++2+-0
        1    0.038354   -0.038354  222+000
       77    0.035897   -0.035897  2+-20+0
      288   -0.032207   -0.032207  +-+2-+0
      876    0.028993    0.028993  ++2200-
      494    0.028910   -0.028910  +-+2+-0
      491    0.028850   -0.028850  +2+20-0
      808   -0.027392    0.027392  2+02+0-
      459   -0.027230    0.027230  20+2+-0
      297   -0.025769    0.025769  +202-0+
      285   -0.025651    0.025651  02+2200
      254    0.025588   -0.025588  -++2-+0
      859   -0.025363    0.025363  02+2002
      499   -0.025248    0.025248  02+2020
      262    0.024330    0.024330  2+02-0+
      253    0.024240    0.024240  20+2-+0
      456   -0.024151   -0.024151  2++20-0
      823   -0.022330    0.022330  20+2002
      843    0.021731    0.021731  +202+0-
       89    0.021472    0.021472  -+2200+
       44    0.021352   -0.021352  -2+20+0

 State #    4  Energy =   -2235.693097031

      Det      Coef        Coefp    Occupancy (Ignoring core)
      ---      ----        ----    --------- --------- -----
       71    0.946496   -0.946496  2+22000
      177   -0.119579    0.119579  2+20200
        6    0.117454   -0.117454  22200+0
       38    0.101691   -0.101691  2202+00
       74   -0.100591    0.100591  2022+00
       78   -0.092476    0.092476  20220+0
       36    0.086445    0.086445  22+2000
      248   -0.069541    0.069541  2+02200
      109    0.055603   -0.055603  +-22+00
      822   -0.052696    0.052696  2+02002
      113    0.050982   -0.050982  +-220+0
      122   -0.050520   -0.050520  +2-200+
       42   -0.043190    0.043190  22020+0
       75   -0.039564   -0.039564  -+22+00
      810    0.039460    0.039460  -++2+0-
       53   -0.036362   -0.036362  2-+200+
      332    0.032189   -0.032189  ++-2-0+
      526   -0.029138   -0.029138  ++220-0
      841    0.029043   -0.029043  +2+200-
      878   -0.028848   -0.028848  ++-2+0-
      809   -0.027398    0.027398  20+2+0-
      458    0.027069   -0.027069  2+02+-0
      323   -0.025794    0.025794  +022-+0
      320   -0.025586   -0.025586  0+22200
      264   -0.025529    0.025529  -++2-0+
      534   -0.025427   -0.025427  0+22020
      894   -0.025305   -0.025305  0+22002
      263    0.024415    0.024415  20+2-0+
      252   -0.024098   -0.024098  2+02-+0
      806    0.024007    0.024007  2++200-
      462   -0.022112    0.022112  2+02020
       79   -0.021843   -0.021843  -+220+0
      529    0.021767    0.021767  +022+-0
       54    0.021478   -0.021478  -2+200+

 ---------------------------------------
    -DIABATIC STATES IN PROTOTYPES-     
 ---------------------------------------

     STATE:    1
 Group Ref#    Coefficients
     1    1    0.998228
     2    2    0.000019
     3    3    0.000165
     4    4    0.000004

WEIGHT OF LISTED PROTOTYPES:   99.65%

     STATE:    2
 Group Ref#    Coefficients
     1    1    0.000019
     2    2    0.995965
     3    3   -0.000055
     4    4   -0.000400

WEIGHT OF LISTED PROTOTYPES:   99.19%

     STATE:    3
 Group Ref#    Coefficients
     1    1    0.000166
     2    2   -0.000055
     3    3    0.994967
     4    4   -0.000048

WEIGHT OF LISTED PROTOTYPES:   99.00%

     STATE:    4
 Group Ref#    Coefficients
     1    1    0.000004
     2    2   -0.000400
     3    3   -0.000048
     4    4    0.995505

WEIGHT OF LISTED PROTOTYPES:   99.10%

     DIRECT MAX. DIABATIZATION FINISHED    
 CPU     0: STEP CPU TIME=     0.61 TOTAL CPU TIME=        266.4 (      4.4 MIN)
 TOTAL WALL CLOCK TIME=        288.2 SECONDS, CPU UTILIZATION IS    92.43%

DIABATS FOR SPIN-ORBIT CALCULATION ARE READY

TRANSITION DIPOLES BETWEEN ADIABATS (in A.U.):

STATE PAIR      X         Y         Z
    1    1  0.000837  0.000126 -0.000010
    2    1  0.001867  0.024962  0.465219
    2    2 -0.004422 -0.000662  0.000053
    3    1 -0.000001 -0.000028 -0.000514
    3    2  0.012023  0.166632 -0.008981
    3    3  0.414184  0.059869 -0.004873
    4    1 -0.000009 -0.000122 -0.002284
    4    2  0.164267 -0.011829 -0.000025
    4    3 -0.060002  0.412993 -0.021910
    4    4 -0.413176 -0.059719  0.004860


TRANSITION DIPOLES BETWEEN DIABATS (in A.U.):

STATE PAIR      X         Y         Z
    1    1  0.001479  0.000224 -0.000014
    2    1  0.002359  0.031461  0.464511
    2    2 -0.005458 -0.000825  0.000047
    3    1  0.016432  0.000973 -0.000228
    3    2 -0.002832  0.164613 -0.027137
    3    3  0.417642 -0.013575 -0.000939
    4    1 -0.000974  0.016404 -0.001738
    4    2  0.165966  0.002596 -0.002496
    4    3  0.013724  0.417273 -0.022401
    4    4 -0.416240  0.013789  0.000936

TRANSITION DIPOLES BETWEEN DIRECT MAX. DIABATS (in A.U.):

STATE PAIR      X         Y         Z
    1    1  0.001479  0.000224 -0.000014
    2    1  0.002359  0.031461  0.464511
    2    2 -0.005458 -0.000825  0.000047
    3    1  0.016432  0.000973 -0.000228
    3    2 -0.002832  0.164614 -0.027137
    3    3  0.417642 -0.013575 -0.000939
    4    1 -0.000974  0.016404 -0.001738
    4    2  0.165966  0.002596 -0.002496
    4    3  0.013724  0.417273 -0.022401
    4    4 -0.416240  0.013789  0.000936
 No $TRANST Group Found.
 Quit without doing spin-orbit coupling
 ..... DONE WITH MP2 ENERGY .....
 CPU     0: STEP CPU TIME=     0.01 TOTAL CPU TIME=        266.4 (      4.4 MIN)
 TOTAL WALL CLOCK TIME=        288.2 SECONDS, CPU UTILIZATION IS    92.43%
            250000000  WORDS OF DYNAMIC MEMORY USED
 EXECUTION OF GAMESS TERMINATED NORMALLY Mon Dec  4 10:33:32 2023
 DDI: 14063448 bytes (13.4 MB / 1 MWords) used by master data server.
Note: The following floating-point exceptions are signalling: IEEE_DENORMAL

 ----------------------------------------
 CPU timing information for all processes
 ========================================
 0: 265.825 + 0.551 = 266.377
 1: 259.317 + 0.428 = 259.746
 ----------------------------------------
Note: The following floating-point exceptions are signalling: IEEE_DENORMAL
 ddikick.x: exited gracefully.
unset echo
----- accounting info -----
Files used on the master node io001 were:
-rw-r--r-- 1 bjb2chen nooijen   144616 Dec  4 10:28 /home/bjb2chen/gmsscr//AsH3cat_cct_gmcpt_C1_3st_diab_mode3_+0.05.F05
-rw-r--r-- 1 bjb2chen nooijen  3626248 Dec  4 10:32 /home/bjb2chen/gmsscr//AsH3cat_cct_gmcpt_C1_3st_diab_mode3_+0.05.F09
-rw-r--r-- 1 bjb2chen nooijen  5760512 Dec  4 10:32 /home/bjb2chen/gmsscr//AsH3cat_cct_gmcpt_C1_3st_diab_mode3_+0.05.F09.001
-rw-r--r-- 1 bjb2chen nooijen  3010240 Dec  4 10:33 /home/bjb2chen/gmsscr//AsH3cat_cct_gmcpt_C1_3st_diab_mode3_+0.05.F10
-rw-r--r-- 1 bjb2chen nooijen  1242968 Dec  4 10:32 /home/bjb2chen/gmsscr//AsH3cat_cct_gmcpt_C1_3st_diab_mode3_+0.05.F13
-rw-r--r-- 1 bjb2chen nooijen  1242968 Dec  4 10:32 /home/bjb2chen/gmsscr//AsH3cat_cct_gmcpt_C1_3st_diab_mode3_+0.05.F13.001
-rw-r--r-- 1 bjb2chen nooijen   181872 Dec  4 10:33 /home/bjb2chen/gmsscr//AsH3cat_cct_gmcpt_C1_3st_diab_mode3_+0.05.F15
-rw-r--r-- 1 bjb2chen nooijen        0 Dec  4 10:28 /home/bjb2chen/gmsscr//AsH3cat_cct_gmcpt_C1_3st_diab_mode3_+0.05.F16
-rw-r--r-- 1 bjb2chen nooijen     9808 Dec  4 10:32 /home/bjb2chen/gmsscr//AsH3cat_cct_gmcpt_C1_3st_diab_mode3_+0.05.F70
-rw-r--r-- 1 bjb2chen nooijen     9808 Dec  4 10:32 /home/bjb2chen/gmsscr//AsH3cat_cct_gmcpt_C1_3st_diab_mode3_+0.05.F70.001
-rw-r--r-- 1 bjb2chen nooijen     9808 Dec  4 10:32 /home/bjb2chen/gmsscr//AsH3cat_cct_gmcpt_C1_3st_diab_mode3_+0.05.F71
-rw-r--r-- 1 bjb2chen nooijen     9808 Dec  4 10:32 /home/bjb2chen/gmsscr//AsH3cat_cct_gmcpt_C1_3st_diab_mode3_+0.05.F71.001
-rw-r--r-- 1 bjb2chen nooijen    19608 Dec  4 10:32 /home/bjb2chen/gmsscr//AsH3cat_cct_gmcpt_C1_3st_diab_mode3_+0.05.F72
-rw-r--r-- 1 bjb2chen nooijen    19608 Dec  4 10:32 /home/bjb2chen/gmsscr//AsH3cat_cct_gmcpt_C1_3st_diab_mode3_+0.05.F72.001
-rw-r--r-- 1 bjb2chen nooijen    19608 Dec  4 10:32 /home/bjb2chen/gmsscr//AsH3cat_cct_gmcpt_C1_3st_diab_mode3_+0.05.F73
-rw-r--r-- 1 bjb2chen nooijen    19608 Dec  4 10:32 /home/bjb2chen/gmsscr//AsH3cat_cct_gmcpt_C1_3st_diab_mode3_+0.05.F73.001
-rw-r--r-- 1 bjb2chen nooijen   961208 Dec  4 10:32 /home/bjb2chen/gmsscr//AsH3cat_cct_gmcpt_C1_3st_diab_mode3_+0.05.F74
-rw-r--r-- 1 bjb2chen nooijen   959640 Dec  4 10:32 /home/bjb2chen/gmsscr//AsH3cat_cct_gmcpt_C1_3st_diab_mode3_+0.05.F74.001
-rw-r--r-- 1 bjb2chen nooijen        0 Dec  4 10:28 /home/bjb2chen/gmsscr//AsH3cat_cct_gmcpt_C1_3st_diab_mode3_+0.05.F75
-rw-r--r-- 1 bjb2chen nooijen        0 Dec  4 10:28 /home/bjb2chen/gmsscr//AsH3cat_cct_gmcpt_C1_3st_diab_mode3_+0.05.F75.001
-rw-r--r-- 1 bjb2chen nooijen    78456 Dec  4 10:32 /home/bjb2chen/gmsscr//AsH3cat_cct_gmcpt_C1_3st_diab_mode3_+0.05.F76
-rw-r--r-- 1 bjb2chen nooijen    78456 Dec  4 10:32 /home/bjb2chen/gmsscr//AsH3cat_cct_gmcpt_C1_3st_diab_mode3_+0.05.F76.001
-rw-r--r-- 1 bjb2chen nooijen        0 Dec  4 10:28 /home/bjb2chen/gmsscr//AsH3cat_cct_gmcpt_C1_3st_diab_mode3_+0.05.F77
-rw-r--r-- 1 bjb2chen nooijen        0 Dec  4 10:28 /home/bjb2chen/gmsscr//AsH3cat_cct_gmcpt_C1_3st_diab_mode3_+0.05.F77.001
-rw-r--r-- 1 bjb2chen nooijen     6408 Dec  4 10:32 /home/bjb2chen/gmsscr//AsH3cat_cct_gmcpt_C1_3st_diab_mode3_+0.05.F78
-rw-r--r-- 1 bjb2chen nooijen     6408 Dec  4 10:32 /home/bjb2chen/gmsscr//AsH3cat_cct_gmcpt_C1_3st_diab_mode3_+0.05.F78.001
-rw-r--r-- 1 bjb2chen nooijen    49008 Dec  4 10:32 /home/bjb2chen/gmsscr//AsH3cat_cct_gmcpt_C1_3st_diab_mode3_+0.05.F79
-rw-r--r-- 1 bjb2chen nooijen    49008 Dec  4 10:32 /home/bjb2chen/gmsscr//AsH3cat_cct_gmcpt_C1_3st_diab_mode3_+0.05.F79.001
-rw-r--r-- 1 bjb2chen nooijen      168 Dec  4 10:32 /home/bjb2chen/gmsscr//AsH3cat_cct_gmcpt_C1_3st_diab_mode3_+0.05.F80
-rw-r--r-- 1 bjb2chen nooijen      168 Dec  4 10:32 /home/bjb2chen/gmsscr//AsH3cat_cct_gmcpt_C1_3st_diab_mode3_+0.05.F80.001
-rw-r--r-- 1 bjb2chen nooijen   102416 Dec  4 10:32 /home/bjb2chen/gmsscr//AsH3cat_cct_gmcpt_C1_3st_diab_mode3_+0.05.F81
-rw-r--r-- 1 bjb2chen nooijen   102416 Dec  4 10:32 /home/bjb2chen/gmsscr//AsH3cat_cct_gmcpt_C1_3st_diab_mode3_+0.05.F81.001
-rw-r--r-- 1 bjb2chen nooijen      656 Dec  4 10:32 /home/bjb2chen/gmsscr//AsH3cat_cct_gmcpt_C1_3st_diab_mode3_+0.05.F82
-rw-r--r-- 1 bjb2chen nooijen      656 Dec  4 10:32 /home/bjb2chen/gmsscr//AsH3cat_cct_gmcpt_C1_3st_diab_mode3_+0.05.F82.001
-rw-r--r-- 1 bjb2chen nooijen    19216 Dec  4 10:32 /home/bjb2chen/gmsscr//AsH3cat_cct_gmcpt_C1_3st_diab_mode3_+0.05.F83
-rw-r--r-- 1 bjb2chen nooijen    19216 Dec  4 10:32 /home/bjb2chen/gmsscr//AsH3cat_cct_gmcpt_C1_3st_diab_mode3_+0.05.F83.001
-rw-r--r-- 1 bjb2chen nooijen   327696 Dec  4 10:32 /home/bjb2chen/gmsscr//AsH3cat_cct_gmcpt_C1_3st_diab_mode3_+0.05.F84
-rw-r--r-- 1 bjb2chen nooijen   327696 Dec  4 10:32 /home/bjb2chen/gmsscr//AsH3cat_cct_gmcpt_C1_3st_diab_mode3_+0.05.F84.001
-rw-r--r-- 1 bjb2chen nooijen  3380328 Dec  4 10:32 /home/bjb2chen/gmsscr//AsH3cat_cct_gmcpt_C1_3st_diab_mode3_+0.05.F85
-rw-r--r-- 1 bjb2chen nooijen  3380328 Dec  4 10:32 /home/bjb2chen/gmsscr//AsH3cat_cct_gmcpt_C1_3st_diab_mode3_+0.05.F85.001
-rw-r--r-- 1 bjb2chen nooijen 13595296 Dec  4 10:32 /home/bjb2chen/gmsscr//AsH3cat_cct_gmcpt_C1_3st_diab_mode3_+0.05.F86
-rw-r--r-- 1 bjb2chen nooijen 12403424 Dec  4 10:32 /home/bjb2chen/gmsscr//AsH3cat_cct_gmcpt_C1_3st_diab_mode3_+0.05.F86.001
-rw-r--r-- 1 bjb2chen nooijen     1160 Dec  4 10:33 /home/bjb2chen/gmsscr//AsH3cat_cct_gmcpt_C1_3st_diab_mode3_+0.05.F87
-rw-r--r-- 1 bjb2chen nooijen     1160 Dec  4 10:33 /home/bjb2chen/gmsscr//AsH3cat_cct_gmcpt_C1_3st_diab_mode3_+0.05.F87.001
-rw-r--r-- 1 bjb2chen nooijen    25184 Dec  4 10:33 /home/bjb2chen/gmsscr//AsH3cat_cct_gmcpt_C1_3st_diab_mode3_+0.05.F88
-rw-r--r-- 1 bjb2chen nooijen    25184 Dec  4 10:33 /home/bjb2chen/gmsscr//AsH3cat_cct_gmcpt_C1_3st_diab_mode3_+0.05.F88.001
-rw-r--r-- 1 bjb2chen nooijen      648 Dec  4 10:32 /home/bjb2chen/gmsscr//AsH3cat_cct_gmcpt_C1_3st_diab_mode3_+0.05.F89
-rw-r--r-- 1 bjb2chen nooijen      648 Dec  4 10:32 /home/bjb2chen/gmsscr//AsH3cat_cct_gmcpt_C1_3st_diab_mode3_+0.05.F89.001
-rw-r--r-- 1 bjb2chen nooijen        0 Dec  4 10:28 /home/bjb2chen/gmsscr//AsH3cat_cct_gmcpt_C1_3st_diab_mode3_+0.05.F90
-rw-r--r-- 1 bjb2chen nooijen        0 Dec  4 10:28 /home/bjb2chen/gmsscr//AsH3cat_cct_gmcpt_C1_3st_diab_mode3_+0.05.F90.001
-rw-r--r-- 1 bjb2chen nooijen    13760 Dec  4 10:33 /home/bjb2chen/gmsscr//AsH3cat_cct_gmcpt_C1_3st_diab_mode3_+0.05.F91
-rw-r--r-- 1 bjb2chen nooijen    13760 Dec  4 10:33 /home/bjb2chen/gmsscr//AsH3cat_cct_gmcpt_C1_3st_diab_mode3_+0.05.F91.001
-rw-r--r-- 1 bjb2chen nooijen    22776 Dec  4 10:32 /home/bjb2chen/gmsscr//AsH3cat_cct_gmcpt_C1_3st_diab_mode3_+0.05.F92
-rw-r--r-- 1 bjb2chen nooijen    22776 Dec  4 10:32 /home/bjb2chen/gmsscr//AsH3cat_cct_gmcpt_C1_3st_diab_mode3_+0.05.F92.001
-rw-r--r-- 1 bjb2chen nooijen    23168 Dec  4 10:32 /home/bjb2chen/gmsscr//AsH3cat_cct_gmcpt_C1_3st_diab_mode3_+0.05.F93
-rw-r--r-- 1 bjb2chen nooijen    23168 Dec  4 10:32 /home/bjb2chen/gmsscr//AsH3cat_cct_gmcpt_C1_3st_diab_mode3_+0.05.F93.001
-rw-r--r-- 1 bjb2chen nooijen    22776 Dec  4 10:32 /home/bjb2chen/gmsscr//AsH3cat_cct_gmcpt_C1_3st_diab_mode3_+0.05.F94
-rw-r--r-- 1 bjb2chen nooijen    22776 Dec  4 10:32 /home/bjb2chen/gmsscr//AsH3cat_cct_gmcpt_C1_3st_diab_mode3_+0.05.F94.001
-rw-r--r-- 1 bjb2chen nooijen    13760 Dec  4 10:32 /home/bjb2chen/gmsscr//AsH3cat_cct_gmcpt_C1_3st_diab_mode3_+0.05.F95
-rw-r--r-- 1 bjb2chen nooijen    13760 Dec  4 10:32 /home/bjb2chen/gmsscr//AsH3cat_cct_gmcpt_C1_3st_diab_mode3_+0.05.F95.001
-rw-r--r-- 1 bjb2chen nooijen    39248 Dec  4 10:33 /home/bjb2chen/gmsscr//AsH3cat_cct_gmcpt_C1_3st_diab_mode3_+0.05.F96
-rw-r--r-- 1 bjb2chen nooijen    39248 Dec  4 10:33 /home/bjb2chen/gmsscr//AsH3cat_cct_gmcpt_C1_3st_diab_mode3_+0.05.F96.001
-rw-r--r-- 1 bjb2chen nooijen     1184 Dec  4 10:32 /home/bjb2chen/gmsscr//AsH3cat_cct_gmcpt_C1_3st_diab_mode3_+0.05.F97
-rw-r--r-- 1 bjb2chen nooijen     1184 Dec  4 10:32 /home/bjb2chen/gmsscr//AsH3cat_cct_gmcpt_C1_3st_diab_mode3_+0.05.F97.001
-rw-r--r-- 1 bjb2chen nooijen     9808 Dec  4 10:32 /home/bjb2chen/gmsscr//AsH3cat_cct_gmcpt_C1_3st_diab_mode3_+0.05.F98
-rw-r--r-- 1 bjb2chen nooijen     9808 Dec  4 10:32 /home/bjb2chen/gmsscr//AsH3cat_cct_gmcpt_C1_3st_diab_mode3_+0.05.F98.001
-rw-r--r-- 1 bjb2chen nooijen    30264 Dec  4 10:32 /home/bjb2chen/gmsscr//AsH3cat_cct_gmcpt_C1_3st_diab_mode3_+0.05.F99
-rw-r--r-- 1 bjb2chen nooijen    30264 Dec  4 10:32 /home/bjb2chen/gmsscr//AsH3cat_cct_gmcpt_C1_3st_diab_mode3_+0.05.F99.001
ls: No match.
ls: No match.
ls: No match.
Mon 04 Dec 2023 10:33:35 AM EST
0.291u 0.065s 4:51.69 0.1%	0+0k 288+496io 0pf+0w
