----- GAMESS execution script 'rungms' -----
This job is running on host io003
under operating system Linux at Mon 04 Dec 2023 10:28:47 AM EST
Available scratch disk space (Kbyte units) at beginning of the job is
Filesystem             1K-blocks       Used Available Use% Mounted on
helmholtz.nlogn:/home 6391504896 5230540800 838824960  87% /home
GAMESS temporary binary files will be written to /home/bjb2chen/gmsscr/
GAMESS supplementary output files will be written to /home/bjb2chen/gamess/vibronics/ash3/4state
Copying input file AsH3cat_cct_gmcpt_C1_3st_diab_mode12_+0.05x2.inp to your run's scratch directory...
cp AsH3cat_cct_gmcpt_C1_3st_diab_mode12_+0.05x2.inp /home/bjb2chen/gmsscr//AsH3cat_cct_gmcpt_C1_3st_diab_mode12_+0.05x2.F05
unset echo
 
Assuming a single but multicore node.
 
/home/bjb2chen/gamess/ddikick.x /home/bjb2chen/gamess/gamess.00.x AsH3cat_cct_gmcpt_C1_3st_diab_mode12_+0.05x2 -ddi 1 2 io003:cpus=2 -scr /home/bjb2chen/gmsscr/

 Distributed Data Interface kickoff program.
 Initiating 2 compute processes on 1 nodes to run the following command:
 /home/bjb2chen/gamess/gamess.00.x AsH3cat_cct_gmcpt_C1_3st_diab_mode12_+0.05x2 

          ******************************************************
          *         GAMESS VERSION = 02 AUG 2018 (R2)         *
          *             FROM IOWA STATE UNIVERSITY             *
          * M.W.SCHMIDT, K.K.BALDRIDGE, J.A.BOATZ, S.T.ELBERT, *
          *   M.S.GORDON, J.H.JENSEN, S.KOSEKI, N.MATSUNAGA,   *
          *          K.A.NGUYEN, S.J.SU, T.L.WINDUS,           *
          *       TOGETHER WITH M.DUPUIS, J.A.MONTGOMERY       *
          *         J.COMPUT.CHEM.  14, 1347-1363(1993)        *
          **************** 64 BIT LINUX VERSION ****************

  SINCE 1993, STUDENTS AND POSTDOCS WORKING AT IOWA STATE UNIVERSITY
  AND ALSO IN THEIR VARIOUS JOBS AFTER LEAVING ISU HAVE MADE IMPORTANT
  CONTRIBUTIONS TO THE CODE:
     IVANA ADAMOVIC, CHRISTINE AIKENS, YURI ALEXEEV, POOJA ARORA,
     ANDREY ASADCHEV, ROB BELL, PRADIPTA BANDYOPADHYAY, JONATHAN BENTZ,
     BRETT BODE, KURT BRORSEN, CALEB CARLIN, GALINA CHABAN, WEI CHEN,
     CHEOL HO CHOI, PAUL DAY, ALBERT DEFUSCO, NUWAN DESILVA, TIM DUDLEY,
     DMITRI FEDOROV, ALEX FINDLATER, GRAHAM FLETCHER, MARK FREITAG,
     KURT GLAESEMANN, ANASTASIA GUININA,
     DAN KEMP, GRANT MERRILL, NORIYUKI MINEZAWA, JONATHAN MULLIN,
     TAKESHI NAGATA, SEAN NEDD, HEATHER NETZLOFF, BOSILJKA NJEGIC, RYAN OLSON,
     MIKE PAK, BUU PHAM,
     SPENCER PRUITT, LUKE ROSKOP, JIM SHOEMAKER, LYUDMILA SLIPCHENKO,
     TONY SMITH, SAROM SOK LEANG, JIE SONG, TETSUYA TAKETSUGU, SIMON WEBB,
     PENG XU, SOOHAENG YOO, FEDERICO ZAHARIEV

  ADDITIONAL CODE HAS BEEN PROVIDED BY COLLABORATORS IN OTHER GROUPS:
     IOWA STATE UNIVERSITY:
          JOE IVANIC, AARON WEST, LAIMUTIS BYTAUTAS, KLAUS RUEDENBERG
     UNIVERSITY OF TOKYO: KIMIHIKO HIRAO, TAKAHITO NAKAJIMA,
          TAKAO TSUNEDA, MUNEAKI KAMIYA, SUSUMU YANAGISAWA,
          KIYOSHI YAGI, MAHITO CHIBA, SEIKEN TOKURA, NAOAKI KAWAKAMI
     UNIVERSITY OF AARHUS: FRANK JENSEN
     UNIVERSITY OF IOWA: VISVALDAS KAIRYS, HUI LI
     NATIONAL INST. OF STANDARDS AND TECHNOLOGY: WALT STEVENS, DAVID GARMER
     UNIVERSITY OF PISA: BENEDETTA MENNUCCI, JACOPO TOMASI
     UNIVERSITY OF MEMPHIS: HENRY KURTZ, PRAKASHAN KORAMBATH
     UNIVERSITY OF ALBERTA: TOBY ZENG, MARIUSZ KLOBUKOWSKI
     UNIVERSITY OF NEW ENGLAND: MARK SPACKMAN
     MIE UNIVERSITY: HIROAKI UMEDA
     NAT. INST. OF ADVANCED INDUSTRIAL SCIENCE AND TECHNOLOGY: KAZUO KITAURA
     MICHIGAN STATE UNIVERSITY:
          KAROL KOWALSKI, MARTA WLOCH, JEFFREY GOUR, JESSE LUTZ,
          WEI LI, JUN SHEN, J. EMILIANO DEUSTUA, PIOTR PIECUCH
     UNIVERSITY OF MINNESOTA:
          YINAN SHU
     UNIVERSITY OF SILESIA: MONIKA MUSIAL, STANISLAW KUCHARSKI
     FACULTES UNIVERSITAIRES NOTRE-DAME DE LA PAIX:
          OLIVIER QUINET, BENOIT CHAMPAGNE
     UNIVERSITY OF CALIFORNIA - SANTA BARBARA: BERNARD KIRTMAN
     INSTITUTE FOR MOLECULAR SCIENCE:
          KAZUYA ISHIMURA, MICHIO KATOUDA, AND SHIGERU NAGASE
     UNIVERSITY OF NOTRE DAME: ANNA POMOGAEVA, DAN CHIPMAN
     KYUSHU UNIVERSITY:
          HARUYUKI NAKANO,
          FENG LONG GU, JACEK KORCHOWIEC, MARCIN MAKOWSKI, AND YURIKO AOKI,
          HIROTOSHI MORI AND EISAKU MIYOSHI
     PENNSYLVANIA STATE UNIVERSITY:
          TZVETELIN IORDANOV, CHET SWALINA, JONATHAN SKONE,
          SHARON HAMMES-SCHIFFER
     WASEDA UNIVERSITY:
          MASATO KOBAYASHI, TOMOKO AKAMA, TSUGUKI TOUMA,
          TAKESHI YOSHIKAWA, YASUHIRO IKABATA, JUNJI SEINO,
          YUYA NAKAJIMA, HIROMI NAKAI
     NANJING UNIVERSITY: SHUHUA LI
     UNIVERSITY OF NEBRASKA:
          PEIFENG SU, DEJUN SI, NANDUN THELLAMUREGE, YALI WANG, HUI LI
     UNIVERSITY OF ZURICH: ROBERTO PEVERATI, KIM BALDRIDGE
     N. COPERNICUS UNIVERSITY AND JACKSON STATE UNIVERSITY:
          MARIA BARYSZ
     UNIVERSITY OF COPENHAGEN: Jimmy Kromann, CASPER STEINMANN
     TOKYO INSTITUTE OF TECHNOLOGY: HIROYA NAKATA
     NAGOYA UNIVERSITY: YOSHIO NISHIMOTO, STEPHAN IRLE
     MOSCOW STATE UNIVERSITY: VLADIMIR MIRONOV


 PARALLEL VERSION RUNNING ON        2 PROCESSORS IN        1 NODES.

 EXECUTION OF GAMESS BEGUN Mon Dec  4 10:28:48 2023

            ECHO OF THE FIRST FEW INPUT CARDS -
 INPUT CARD> !Step 4: Calculation using REFDET                                              
 INPUT CARD> $system kdiag=3 mwords=250 memddi=8000 parall=.t. $end                         
 INPUT CARD> $contrl runtyp=energy ispher=1 $end                                            
 INPUT CARD> $contrl icut=9 itol=20 inttyp=rysquad qmttol=1.0d-05 nosym=1 $end              
 INPUT CARD> $scf    npunch=2 conv=1.0d-06 dirscf=.t. diis=.t. soscf=.f. ethrsh=10.0 $end   
 INPUT CARD> $contrl scftyp=mcscf  mult=2 maxit=200 icharg=1 mplevl=2 $end                  
 INPUT CARD> $guess  guess=moread norb=85 purify=.t. $end                                   
 INPUT CARD> $basis  gbasis=cct $end                                                        
 INPUT CARD> $mcscf  cistep=gmcci fullnr=.t. finci=mos                                      
 INPUT CARD>         acurcy=1.d-6 maxit=200 $end                                            
 INPUT CARD> $trans  dirtrf=.t. $end                                                        
 INPUT CARD> $mrmp   mrpt=gmcpt rdvecs=.f. $end                                             
 INPUT CARD> $gmcpt  nmofzc=5 nmodoc=9 nmoact=7 nelact=7 stsym(1)=A                         
 INPUT CARD>         reftyp=ormas nspace=1 mstart(1)=15 mine(1)=7 maxe(1)=7                 
 INPUT CARD>         kstate(1)=1,1,1,1                                                      
 INPUT CARD>         wstate(1)=1,1,1,1                                                      
 INPUT CARD>         iwgt=0 thrwgt=-1.0 krot=.f. kszdoe=.f. knospn=.f.                      
 INPUT CARD>         thrde=-1.0 edshft=0.02 $end                                            
 INPUT CARD> $statpt hssend=.t. $end                                                        
 INPUT CARD> $end                                                                           
 INPUT CARD>--- Semi-canonical MOs --- generated at Mon Dec  4 10:21:58 2023                
 INPUT CARD> $VEC                                                                           
 INPUT CARD> 1  1 9.99999416E-01 7.29973887E-07-3.99440478E-06-4.81875831E-06 1.63484706E-05
 INPUT CARD> 1  2 5.36732169E-06-0.00000000E+00-0.00000000E+00-0.00000000E+00 4.03838885E-11
 INPUT CARD> 1  3-0.00000000E+00-0.00000000E+00 7.96211074E-11 1.14517212E-11-0.00000000E+00
 INPUT CARD> 1  4-1.40849369E-11-0.00000000E+00-0.00000000E+00-2.21867430E-11-0.00000000E+00
 INPUT CARD> 1  5-0.00000000E+00 1.08959399E-07 1.08961145E-07-2.17920544E-07-0.00000000E+00
 INPUT CARD> 1  6-0.00000000E+00-0.00000000E+00 7.02728157E-08 7.02573272E-08-1.40530143E-07
 INPUT CARD> 1  7-0.00000000E+00-0.00000000E+00-0.00000000E+00 8.61676265E-08 8.61266319E-08
 INPUT CARD> 1  8-1.72294258E-07-0.00000000E+00-0.00000000E+00-0.00000000E+00 1.61185015E-07
 INPUT CARD> 1  9-0.00000000E+00-0.00000000E+00-0.00000000E+00-0.00000000E+00-2.16246982E-07
 INPUT CARD> 1 10-0.00000000E+00-0.00000000E+00-0.00000000E+00-0.00000000E+00-2.29650252E-07
 INPUT CARD> 1 11-4.66898658E-07-1.12343498E-06-6.64097518E-08 1.15015824E-07-0.00000000E+00
 INPUT CARD> 1 12-1.90369794E-07 3.29734733E-07-0.00000000E+00 4.67684240E-08-2.10541491E-07
 INPUT CARD> 1 13 1.63773067E-07 2.57316182E-07-0.00000000E+00-0.00000000E+00-2.29652599E-07
 INPUT CARD> 1 14-4.66879487E-07-1.12342770E-06-6.64102175E-08-1.15016523E-07-0.00000000E+00
 INPUT CARD> 1 15-1.90364897E-07-3.29724918E-07-0.00000000E+00 4.67679470E-08-2.10540564E-07
 INPUT CARD> 1 16 1.63772617E-07-2.57315196E-07-0.00000000E+00-0.00000000E+00-2.29639944E-07
 INPUT CARD> 1 17-4.66987046E-07-1.12340031E-06 1.32807841E-07-0.00000000E+00-0.00000000E+00
 INPUT CARD> 1 18 3.80780830E-07-0.00000000E+00-0.00000000E+00-3.39206184E-07 1.75440103E-07
 INPUT CARD> 1 19 1.63766080E-07-0.00000000E+00-0.00000000E+00-0.00000000E+00               
 INPUT CARD> 2  1 2.72313662E-06 1.00010341E+00 1.34746909E-04 1.43214017E-04-4.26044547E-04
 INPUT CARD> 2  2-1.40486446E-04 7.10299112E-11-7.88863849E-11-0.00000000E+00-5.42197215E-11
 INPUT CARD> 2  3-1.27361486E-11-0.00000000E+00-1.68049866E-10-3.19745914E-11-0.00000000E+00
 INPUT CARD> 2  4 2.95588732E-11-0.00000000E+00-0.00000000E+00-0.00000000E+00-0.00000000E+00
 INPUT CARD> 2  5-0.00000000E+00-6.69941071E-07-6.69957164E-07 1.33989824E-06-0.00000000E+00
 INPUT CARD> 2  6-0.00000000E+00-0.00000000E+00-2.23303604E-06-2.23305293E-06 4.46608898E-06
 INPUT CARD> 2  7-0.00000000E+00-0.00000000E+00-0.00000000E+00-1.84537905E-06-1.84515653E-06
 INPUT CARD> 2  8 3.69053558E-06 1.25718203E-11-0.00000000E+00-0.00000000E+00-6.15992627E-06
 INPUT CARD> 2  9-0.00000000E+00-0.00000000E+00-0.00000000E+00-0.00000000E+00 8.26439636E-06
  250000000 WORDS OF MEMORY AVAILABLE

     BASIS OPTIONS
     -------------
     GBASIS=CCT          IGAUSS=       0      POLAR=NONE    
     NDFUNC=       0     NFFUNC=       0     DIFFSP=       F
     NPFUNC=       0      DIFFS=       F     BASNAM=        


     RUN TITLE
     ---------
 AsH3+ calculation at 4 states                                                   

 THE POINT GROUP OF THE MOLECULE IS C1      
 THE ORDER OF THE PRINCIPAL AXIS IS     0

 ATOM      ATOMIC                      COORDINATES (BOHR)
           CHARGE         X                   Y                   Z
 AS         33.0    -0.0003456823       -0.0000006399        0.0000000000
 H           1.0    -1.3801708634        2.3898768307        0.0000000004
 H           1.0    -1.3801421925       -2.3898285576       -0.0000000004
 H           1.0     2.7860118717       -0.0000006930        0.0000000000

          INTERNUCLEAR DISTANCES (ANGS.)
          ------------------------------

                1 AS         2 H          3 H          4 H     

   1 AS      0.0000000    1.4603213 *  1.4602910 *  1.4744770 *
   2 H       1.4603213 *  0.0000000    2.5293113 *  2.5416264 *
   3 H       1.4602910 *  2.5293113 *  0.0000000    2.5416002 *
   4 H       1.4744770 *  2.5416264 *  2.5416002 *  0.0000000  

  * ... LESS THAN  3.000


     ATOMIC BASIS SET
     ----------------
 THE CONTRACTED PRIMITIVE FUNCTIONS HAVE BEEN UNNORMALIZED
 THE CONTRACTED BASIS FUNCTIONS ARE NOW NORMALIZED TO UNITY

  SHELL TYPE  PRIMITIVE        EXPONENT          CONTRACTION COEFFICIENT(S)

 AS        

      1   S       1       8482340.0000000    0.000006800003
      1   S       2       1270151.0000000    0.000052800023
      1   S       3        289057.0000000    0.000277400122
      1   S       4         81879.8500000    0.001170200514
      1   S       5         26716.5600000    0.004242101862
      1   S       6          9647.5840000    0.013655705995
      1   S       7          3764.1190000    0.039339917271
      1   S       8          1561.5660000    0.099929243872
      1   S       9           680.8147000    0.212155593142
      1   S      10           309.2412000    0.336386747683
      1   S      11           145.2574000    0.315512638518
      1   S      12            69.7390500    0.118131251863
      1   S      13            31.7703200    0.008007603516
      1   S      14            15.3917600    0.000329300145
      1   S      15             7.3415260   -0.000152300067
      1   S      16             3.3237160    0.000024700011
      1   S      17             1.4858670   -0.000036600016
      1   S      18             0.2115000   -0.000009400004

      2   S      19       8482340.0000000   -0.000002099844
      2   S      20       1270151.0000000   -0.000016498771
      2   S      21        289057.0000000   -0.000086593551
      2   S      22         81879.8500000   -0.000365272798
      2   S      23         26716.5600000   -0.001330800894
      2   S      24          9647.5840000   -0.004308979105
      2   S      25          3764.1190000   -0.012696354487
      2   S      26          1561.5660000   -0.033613496762
      2   S      27           680.8147000   -0.078941121158
      2   S      28           309.2412000   -0.151434522485
      2   S      29           145.2574000   -0.204186194004
      2   S      30            69.7390500   -0.055732549529
      2   S      31            31.7703200    0.418729516699
      2   S      32            15.3917600    0.575833316987
      2   S      33             7.3415260    0.169671564351
      2   S      34             3.3237160    0.006065748276
      2   S      35             1.4858670    0.001760368903
      2   S      36             0.2115000    0.000231582754

      3   S      37       8482340.0000000    0.000000818623
      3   S      38       1270151.0000000    0.000006548987
      3   S      39        289057.0000000    0.000034484509
      3   S      40         81879.8500000    0.000145612630
      3   S      41         26716.5600000    0.000530877249
      3   S      42          9647.5840000    0.001719313712
      3   S      43          3764.1190000    0.005083344082
      3   S      44          1561.5660000    0.013519053150
      3   S      45           680.8147000    0.032188884481
      3   S      46           309.2412000    0.063284292808
      3   S      47           145.2574000    0.090004159277
      3   S      48            69.7390500    0.026354351138
      3   S      49            31.7703200   -0.251262012099
      3   S      50            15.3917600   -0.520907644337
      3   S      51             7.3415260   -0.056868639208
      3   S      52             3.3237160    0.724870110338
      3   S      53             1.4858670    0.535280112340
      3   S      54             0.2115000   -0.011376408833

      4   S      55       8482340.0000000   -0.000000322182
      4   S      56       1270151.0000000   -0.000002899636
      4   S      57        289057.0000000   -0.000014981451
      4   S      58         81879.8500000   -0.000063147623
      4   S      59         26716.5600000   -0.000230198862
      4   S      60          9647.5840000   -0.000745689664
      4   S      61          3764.1190000   -0.002204850817
      4   S      62          1561.5660000   -0.005870151514
      4   S      63           680.8147000   -0.013996219653
      4   S      64           309.2412000   -0.027636106289
      4   S      65           145.2574000   -0.039550065282
      4   S      66            69.7390500   -0.011844045553
      4   S      67            31.7703200    0.115999445484
      4   S      68            15.3917600    0.253920137348
      4   S      69             7.3415260    0.022886825089
      4   S      70             3.3237160   -0.459365613804
      4   S      71             1.4858670   -0.625893951029
      4   S      72             0.2115000    1.046339525967

      5   S      73             0.4210860    1.000000000000

      6   S      74             0.0889740    1.000000000000

      7   P      75          7423.8610000    0.000459888095
      7   P      76          1759.5170000    0.003982196918
      7   P      77           570.2292000    0.021463244409
      7   P      78           216.5800000    0.082459565479
      7   P      79            90.7342500    0.223884404601
      7   P      80            40.3087900    0.392060251256
      7   P      81            18.5555000    0.354214630915
      7   P      82             8.3965430    0.104861385592
      7   P      83             3.7673670    0.003366312861
      7   P      84             1.6297010    0.001849452126
      7   P      85             0.2225030    0.000229694054

      8   P      86          7423.8610000   -0.000183933273
      8   P      87          1759.5170000   -0.001603623364
      8   P      88           570.2292000   -0.008714684634
      8   P      89           216.5800000   -0.034482567311
      8   P      90            90.7342500   -0.097731519242
      8   P      91            40.3087900   -0.183894927481
      8   P      92            18.5555000   -0.150374370146
      8   P      93             8.3965430    0.201569541112
      8   P      94             3.7673670    0.550783570924
      8   P      95             1.6297010    0.395483295494
      8   P      96             0.2225030   -0.005537068181

      9   P      97          7423.8610000    0.000067575484
      9   P      98          1759.5170000    0.000590735054
      9   P      99           570.2292000    0.003209920148
      9   P     100           216.5800000    0.012757201241
      9   P     101            90.7342500    0.036296841475
      9   P     102            40.3087900    0.069067055648
      9   P     103            18.5555000    0.055084858236
      9   P     104             8.3965430   -0.092951347783
      9   P     105             3.7673670   -0.256062306212
      9   P     106             1.6297010   -0.211535143443
      9   P     107             0.2225030    0.991664800915

     10   P     108             0.5682630    1.000000000000

     11   P     109             0.0804050    1.000000000000

     12   D     110           321.0196000    0.001738948853
     12   D     111            96.2493100    0.014620594557
     12   D     112            36.6449600    0.064875906626
     12   D     113            15.4939600    0.184323725081
     12   D     114             6.8911380    0.331417629149
     12   D     115             3.0548310    0.389664464481
     12   D     116             1.3142410    0.283997092847

     13   D     117             0.5134300    1.000000000000

     14   D     118             0.1877000    1.000000000000

     15   F     119             0.4158000    1.000000000000

 H         

     16   S     120            33.8700000    0.025494863235
     16   S     121             5.0950000    0.190362765893
     16   S     122             1.1590000    0.852162022245

     17   S     123             0.3258000    1.000000000000

     18   S     124             0.1027000    1.000000000000

     19   P     125             1.4070000    1.000000000000

     20   P     126             0.3880000    1.000000000000

     21   D     127             1.0570000    1.000000000000

 H         

     22   S     128            33.8700000    0.025494863235
     22   S     129             5.0950000    0.190362765893
     22   S     130             1.1590000    0.852162022245

     23   S     131             0.3258000    1.000000000000

     24   S     132             0.1027000    1.000000000000

     25   P     133             1.4070000    1.000000000000

     26   P     134             0.3880000    1.000000000000

     27   D     135             1.0570000    1.000000000000

 H         

     28   S     136            33.8700000    0.025494863235
     28   S     137             5.0950000    0.190362765893
     28   S     138             1.1590000    0.852162022245

     29   S     139             0.3258000    1.000000000000

     30   S     140             0.1027000    1.000000000000

     31   P     141             1.4070000    1.000000000000

     32   P     142             0.3880000    1.000000000000

     33   D     143             1.0570000    1.000000000000

 TOTAL NUMBER OF BASIS SET SHELLS             =   33
 NUMBER OF CARTESIAN GAUSSIAN BASIS FUNCTIONS =   94
 NOTE: THIS RUN WILL RESTRICT THE MO VARIATION SPACE TO SPHERICAL HARMONICS.
 THE NUMBER OF ORBITALS KEPT IN THE VARIATIONAL SPACE WILL BE PRINTED LATER.
 NUMBER OF ELECTRONS                          =   35
 CHARGE OF MOLECULE                           =    1
 SPIN MULTIPLICITY                            =    2
 NUMBER OF OCCUPIED ORBITALS (ALPHA)          =   18
 NUMBER OF OCCUPIED ORBITALS (BETA )          =   17
 TOTAL NUMBER OF ATOMS                        =    4
 THE NUCLEAR REPULSION ENERGY IS       36.3857428199

     $CONTRL OPTIONS
     ---------------
 SCFTYP=MCSCF        RUNTYP=ENERGY       EXETYP=RUN     
 MPLEVL=       2     CITYP =NONE         CCTYP =NONE         VBTYP =NONE    
 DFTTYP=NONE         TDDFT =NONE    
 MULT  =       2     ICHARG=       1     NZVAR =       0     COORD =UNIQUE  
 PP    =NONE         RELWFN=NONE         LOCAL =NONE         NUMGRD=       F
 ISPHER=       1     NOSYM =       1     MAXIT =     200     UNITS =ANGS    
 PLTORB=       F     MOLPLT=       F     AIMPAC=       F     FRIEND=        
 NPRINT=       7     IREST =       0     GEOM  =INPUT   
 NORMF =       0     NORMP =       0     ITOL  =      20     ICUT  =       9
 INTTYP=RYSQUAD      GRDTYP=BEST         QMTTOL= 1.0E-05

     $SYSTEM OPTIONS
     ---------------
  REPLICATED MEMORY=   250000000 WORDS (ON EVERY NODE).
 DISTRIBUTED MEMDDI=        8000 MILLION WORDS IN AGGREGATE,
 MEMDDI DISTRIBUTED OVER   2 PROCESSORS IS  4000000000 WORDS/PROCESSOR.
 TOTAL MEMORY REQUESTED ON EACH PROCESSOR=  4250000000 WORDS.
 TIMLIM=      525600.00 MINUTES, OR     365.0 DAYS.
 PARALL= T  BALTYP=  DLB     KDIAG=    3  COREFL= F
 MXSEQ2=     300 MXSEQ3=     150  mem10=         0

          ----------------
          PROPERTIES INPUT
          ----------------

     MOMENTS            FIELD           POTENTIAL          DENSITY
 IEMOM =       1   IEFLD =       0   IEPOT =       0   IEDEN =       0
 WHERE =COMASS     WHERE =NUCLEI     WHERE =NUCLEI     WHERE =NUCLEI  
 OUTPUT=BOTH       OUTPUT=BOTH       OUTPUT=BOTH       OUTPUT=BOTH    
 IEMINT=       0   IEFINT=       0                     IEDINT=       0
                                                       MORB  =       0

     -------------------------------
     INTEGRAL TRANSFORMATION OPTIONS
     -------------------------------
     NWORD  =            0
     CUTOFF = 1.0E-09     MPTRAN =       0
     DIRTRF =       T     AOINTS =DUP     

          ----------------------
          MCSCF INPUT PARAMETERS
          ----------------------
 CONVERGER SELECTION: FOCAS = F  SOSCF = F  FULLNR = T  QUD = F  JACOBI = F
 SECULAR EQUATION METHOD CISTEP = GMCCI   
 --- GENERAL INPUT OPTIONS:
 MAXIT =     200  MICIT =       1  ACURCY= 1.000E-06
 DAMP  =   0.000  CANONC=       T  ENGTOL= 1.000E-10
 EKT   =       F  NPUNCH=       2  NWORD =         0
 REGENERATE CI AFTER CONVERGENCE = NONE    
 DIABATIZATION AFTER CONVERGENCE =        F
 --- INPUT FOR FULLNR CONVERGER:
 METHOD=DM2       FORS  =       F  DROPC =       T
 LINSER=       F  FCORE =       F  NORB  =      94

          ----------------------
          INTEGRAL INPUT OPTIONS
          ----------------------
 NOPK  =       1 NORDER=       0 SCHWRZ=       T

 ------------------------------------------
 MULTIREFERENCE PERTURBATION THEORY CONTROL
 ------------------------------------------
 MRPT=GMCPT    READ CONVERGED MCSCF VECTORS= F


     ------------------------------------------
     THE POINT GROUP IS C1 , NAXIS= 1, ORDER= 1
     ------------------------------------------

 -- VARIATIONAL SPACE WILL BE RESTRICTED TO PURE SPHERICAL HARMONICS ONLY --
 AFTER EXCLUDING CONTAMINANT COMBINATIONS FROM THE CARTESIAN GAUSSIAN BASIS
 SET, THE NUMBER OF SPHERICAL HARMONICS KEPT IN THE VARIATION SPACE IS   85

     DIMENSIONS OF THE SYMMETRY SUBSPACES ARE
 A   =   85

 ..... DONE SETTING UP THE RUN .....
 CPU     0: STEP CPU TIME=     0.19 TOTAL CPU TIME=          0.2 (      0.0 MIN)
 TOTAL WALL CLOCK TIME=          0.6 SECONDS, CPU UTILIZATION IS    32.76%

          ********************
          1 ELECTRON INTEGRALS
          ********************
 TIME TO DO   DIPOLE INTEGRALS=      0.01
 ...... END OF ONE-ELECTRON INTEGRALS ......
 CPU     0: STEP CPU TIME=     0.01 TOTAL CPU TIME=          0.2 (      0.0 MIN)
 TOTAL WALL CLOCK TIME=          0.6 SECONDS, CPU UTILIZATION IS    33.33%

          -------------
          GUESS OPTIONS
          -------------
          GUESS =MOREAD            NORB  =      85          NORDER=       0
          MIX   =       F          PRTMO =       F          PUNMO =       F
          TOLZ  = 1.0E-08          TOLE  = 1.0E-05
          SYMDEN=       F          PURIFY=       T

 INITIAL GUESS ORBITALS GENERATED BY MOREAD   ROUTINE.

 STATISTICS FOR GENERATION OF SYMMETRY ORBITAL -Q- MATRIX
 NUMBER OF CARTESIAN ATOMIC ORBITALS=         94
 NUMBER OF SPHERICAL CONTAMINANTS DROPPED=     9
 NUMBER OF LINEARLY DEPENDENT MOS DROPPED=     0
 TOTAL NUMBER OF MOS IN VARIATION SPACE=      85
 ORBITAL PURIFICATION WILL OCCUR

 SYMMETRIES FOR INITIAL GUESS ORBITALS FOLLOW.   BOTH SET(S).
    18 ORBITALS ARE OCCUPIED (   14 CORE ORBITALS).
     1=A        2=A        3=A        4=A        5=A        6=A        7=A   
     8=A        9=A       10=A       11=A       12=A       13=A       14=A   
    15=A       16=A       17=A       18=A       19=A       20=A       21=A   
    22=A       23=A       24=A       25=A       26=A       27=A       28=A   
    29=A       30=A       31=A       32=A       33=A       34=A       35=A   
    36=A       37=A       38=A       39=A       40=A       41=A       42=A   
    43=A       44=A       45=A       46=A       47=A       48=A       49=A   
    50=A       51=A       52=A       53=A       54=A       55=A       56=A   
    57=A       58=A       59=A       60=A       61=A       62=A       63=A   
    64=A       65=A       66=A       67=A       68=A       69=A       70=A   
    71=A       72=A       73=A       74=A       75=A       76=A       77=A   
    78=A       79=A       80=A       81=A       82=A       83=A       84=A   
    85=A   
 ...... END OF INITIAL ORBITAL SELECTION ......
 CPU     0: STEP CPU TIME=     0.11 TOTAL CPU TIME=          0.3 (      0.0 MIN)
 TOTAL WALL CLOCK TIME=          0.8 SECONDS, CPU UTILIZATION IS    39.24%

                    ----------------------
                    AO INTEGRAL TECHNOLOGY
                    ----------------------
     S,P,L SHELL ROTATED AXIS INTEGRALS, REPROGRAMMED BY
        KAZUYA ISHIMURA (IMS) AND JOSE SIERRA (SYNSTAR).
     S,P,D,L SHELL ROTATED AXIS INTEGRALS PROGRAMMED BY
        KAZUYA ISHIMURA (INSTITUTE FOR MOLECULAR SCIENCE).
     S,P,D,F,G SHELL TO TOTAL QUARTET ANGULAR MOMENTUM SUM 5,
        ERIC PROGRAM BY GRAHAM FLETCHER (ELORET AND NASA ADVANCED
        SUPERCOMPUTING DIVISION, AMES RESEARCH CENTER).
     S,P,D,F,G,L SHELL GENERAL RYS QUADRATURE PROGRAMMED BY
        MICHEL DUPUIS (PACIFIC NORTHWEST NATIONAL LABORATORY).

          --------------------
          2 ELECTRON INTEGRALS
          --------------------

 DIRECT SCF METHOD SKIPS INTEGRAL STORAGE ON DISK.
 DIRECT TRANSFORMATION SKIPS AO INTEGRAL STORAGE ON DISK.
  ...... END OF TWO-ELECTRON INTEGRALS .....
 STEP CPU TIME =     0.04 TOTAL CPU TIME =          0.4 (      0.0 MIN)
 TOTAL WALL CLOCK TIME=          0.8 SECONDS, CPU UTILIZATION IS    42.68%
 DDI: Creating Array [0] - 8836 x 231 = 2041116 words.
 DDI: Creating Array [1] - 64 x 4851 = 310464 words.
 DDI: Creating Array [2] - 231 x 231 = 53361 words.
 DDI: Creating Array [3] - 4465 x 231 = 1031415 words.

          -----------------
          MCSCF CALCULATION
          -----------------

 ----- NUCLEAR ENERGY ----- =        36.3857428199

     -------------------------------------------------
     GMC-PT/GMC-QDPT or general MCSCF input parameters
     -------------------------------------------------
 # of frozen core orbs. =         5 ->         0
 # of doubly occ. orbs. =         9
 # of active      orbs. =         7
 # of virtual     orbs. =        64
 # of active electrons  =         7
 # of states in CI      =         4
 Highest state in CI    =         4
 kstate =  1 1 1 1
 avecoe =  0.250 0.250 0.250 0.250
 State symmetry           = A           
 Assigned symmetry number = 1

 <<<Act. MO sym.: 1111111

 <<<Division of 1-ext.:  0 0
 <<<Division of 2-ext.:  0 1

 *** Reference space

 Reference type: ORMAS (= Occupation restricted multiple active space)
 # of orbitals          =  7
 # of minimum electrons =  7
 # of maximum electrons =  7
 State symmetry    =    1 (input)
 2*Sz              =    1 (input)
 Spin multiplicity =    2 (input)
 Dimension of reference space =      1225  (from      3432 walks)

 Dimension of reference space =      1225  (from      1225 walks)

 <<<Ionized spaces for Ref-CI:
      0:         1225 /   -1-0:         1960 /  0-1-0:         2891

 EVALUATING EXCHANGE INTEGRALS FOR DIRECT INTEGRAL TRANSFORMATION
 SCHWARZ INEQUALITY OVERHEAD:      4465 INTEGRALS, T=        0.21

     --------------------------------------------
     PARTIAL TWO ELECTRON INTEGRAL TRANSFORMATION
     --------------------------------------------

 NUMBER OF CORE MOLECULAR ORBITALS     =   14
 NUMBER OF OCCUPIED MOLECULAR ORBITALS =   21
 TOTAL NUMBER OF MOLECULAR ORBITALS    =   85
 TOTAL NUMBER OF ATOMIC ORBITALS       =   94
 THRESHOLD FOR KEEPING TRANSFORMED 2E- INTEGRALS = 1.000E-09

 -------------------------------     ------------------------------
 DISTRIBUTED DATA TRANSFORMATION     PROGRAM WRITTEN BY G. FLETCHER
 -------------------------------     ------------------------------

 THE DISTRIBUTED MEMORY REQUIRED FOR THIS STEP IS MEMDDI=         4 MWORDS
 CREATING DISTRIBUTED STORAGE FOR [VIR OCC|VIR OCC] INTEGRALS
 CREATING DISTRIBUTED STORAGE FOR [VIR OCC|OCC OCC] INTEGRALS
 CREATING DISTRIBUTED STORAGE FOR [OCC OCC|OCC OCC] INTEGRALS
 CREATING DISTRIBUTED STORAGE FOR [VIR VIR|OCC OCC] INTEGRALS
 FOR    2 PROCESSORS, THE REPLICATED MEMORY NEEDED IS      615709 WORDS.
 SCHWARZ INEQUALITY OVERHEAD:      4465 INTEGRALS, T=        0.20

      DIRECT 4-INDEX TRANSFORMATION 
      SCHWARZ INEQUALITY TEST SKIPPED       1059 INTEGRAL BLOCKS
 ----- FROZEN CORE ENERGY =     -2258.5589339768
 ... END OF INTEGRAL TRANSFORMATION ...
 CPU     0: STEP CPU TIME=    10.37 TOTAL CPU TIME=         10.7 (      0.2 MIN)
 TOTAL WALL CLOCK TIME=         11.3 SECONDS, CPU UTILIZATION IS    94.45%

     --------------------------------     -----------------------------
     MCHF NEWTON-RAPHSON OPTIMIZATION     CODE WRITTEN BY MICHEL DUPUIS
     --------------------------------     -----------------------------
     PARALLEL VERSION WRITTEN BY G. FLETCHER (ELORET)
     NASA ADVANCED SUPERCOMPUTING DIVISION, AMES RESEARCH CENTER

 NUMBER OF INDEPENDENT ORBITAL ROTATION PARAMETERS =   859
 ..... DONE SOLVING NEWTON-RAPHSON EQUATIONS .....
 CPU     0: STEP CPU TIME=     0.44 TOTAL CPU TIME=         11.2 (      0.2 MIN)
 TOTAL WALL CLOCK TIME=         12.2 SECONDS, CPU UTILIZATION IS    91.33%
 ..... DONE WITH NTN-RPH ORBITAL ROTATIONS ..... 
 CPU     0: STEP CPU TIME=     0.00 TOTAL CPU TIME=         11.2 (      0.2 MIN)
 TOTAL WALL CLOCK TIME=         12.2 SECONDS, CPU UTILIZATION IS    91.33%
 MAXIMUM MEMORY USED BY NTN-RPH CODE WAS    197978 WORDS.

 ITER     TOTAL ENERGY      DEL(E)  LAGRANGIAN ASYMMETRY   SQCDF  MICIT   DAMP
   1    -2235.516912029 -0.516912029  0.001956   60   15 2.927E-05  1   0.0000
   2    -2235.516923105 -0.000011076  0.000163   60   19 8.692E-06  1   0.0000
   3    -2235.516924035 -0.000000930  0.000103   60   19 3.856E-06  1   0.0000
   4    -2235.516924425 -0.000000389  0.000066   60   19 1.793E-06  1   0.0000
   5    -2235.516924598 -0.000000174  0.000043   60   19 8.345E-07  1   0.0000
   6    -2235.516924677 -0.000000078  0.000028   60   19 3.857E-07  1   0.0000
   7    -2235.516924712 -0.000000036  0.000019   60   19 1.771E-07  1   0.0000
   8    -2235.516924728 -0.000000016  0.000013   60   19 8.096E-08  1   0.0000
   9    -2235.516924736 -0.000000007  0.000008   60   19 3.695E-08  1   0.0000
  10    -2235.516924739 -0.000000003  0.000006   60   19 1.682E-08  1   0.0000
  11    -2235.516924740 -0.000000002  0.000004   60   19 7.654E-09  1   0.0000
  12    -2235.516924741 -0.000000001  0.000003   60   19 3.482E-09  1   0.0000
  13    -2235.516924741 -0.000000000  0.000002   60   19 1.578E-09  1   0.0000
  14    -2235.516924742 -0.000000000  0.000001   60   19 7.202E-10  1   0.0000
  15    -2235.516924742 -0.000000000  0.000001   60   19 3.274E-10  1   0.0000

          --------------------
          LAGRANGIAN CONVERGED
          --------------------

 FINAL MCSCF ENERGY IS    -2235.5169247416 AFTER  15 ITERATIONS

 -MCCI- BASED ON OPTIMIZED ORBITALS
 ----------------------------------

 PLEASE NOTE: IF THE ACTIVE ORBITALS ARE CANONICALIZED BELOW,
 THE FOLLOWING CI EXPANSION COEFFICIENTS AND THE DENSITY DO NOT
 CORRESPOND TO THE PRINTED ORBITALS.  THE PRINTED EXPANSIONS MATCH
 THE ORBITALS USED DURING THE LAST ITERATION.  IF YOU WISH TO SEE
 CI EXPANSIONS BASED ON THE CANONICAL (OR NATURAL) ORBITALS, YOU
 MUST RUN A CI CALCULATION WITH THAT ORBITAL CHOICE READ IN $VEC.

 Averaged energy =   -2235.516924742

 State #    1  Energy =   -2235.693374669  S =  0.500

      Det      Coef    Occupancy (Ignoring core)
      ---      ----    --------- --------- -----
        1   -0.976690  11110001110000
      107    0.073557  11101000111000
      143   -0.060327  11011001100100
      179   -0.061304  10111001010100
      393   -0.059248  10110101010010
      717   -0.058758  11010011100001

 State #    2  Energy =   -2235.481696090  S =  0.500

      Det      Coef    Occupancy (Ignoring core)
      ---      ----    --------- --------- -----
        2    0.951282  11101001110000
      106   -0.172478  11110000111000
      110   -0.057353  01111000111000
      156    0.078536  11100011100100
      181   -0.083195  11100101010100
      212    0.064046  11101000110100
      387   -0.080820  11101001010010
      391   -0.051125  11100101010010
      396    0.060154  10101101010010
      702    0.074652  11101001100001
      720    0.060530  11001011100001

 State #    3  Energy =   -2235.447205375  S =  0.500

      Det      Coef    Occupancy (Ignoring core)
      ---      ----    --------- --------- -----
        6    0.118441  11100101110000
       38    0.101430  11011001101000
       71    0.949932  11110001011000
       74   -0.102360  10111001011000
       78   -0.092365  10110101011000
      109    0.056378  10111000111000
      113    0.050520  10110100111000
      122    0.050821  11010010111000
      177   -0.120497  11101001010100
      248   -0.068950  11011001001100
      822   -0.052595  11010011001001

 State #    4  Energy =   -2235.445422832  S =  0.500

      Det      Coef    Occupancy (Ignoring core)
      ---      ----    --------- --------- -----
       16   -0.116284  11100011110000
       36    0.950518  11110001101000
       39    0.102528  10111001101000
       52    0.092483  11010011101000
       73    0.101831  11011001011000
      108    0.055665  11011000111000
      112   -0.051337  11010100111000
      123    0.051097  10110010111000
      142   -0.119603  11101001100100
      249    0.069725  10111001001100
      463    0.053016  10110101001010

 DENSITY MATRIX OVER ACTIVE MO-S

             1           2           3           4           5

    1    1.9718977
    2   -0.0011298   1.7199534
    3    0.0000183   0.0000145   1.7207179
    4   -0.0000000  -0.0000000  -0.0000000   1.2381546
    5    0.0032543   0.0018419  -0.0000301  -0.0000000   0.2904242
    6    0.0013348   0.0022379  -0.0000520  -0.0000000   0.0052745
    7   -0.0000231  -0.0000539  -0.0004648   0.0000000  -0.0000919

             6           7

    6    0.0298926
    7   -0.0000185   0.0289596

 FORMING THE "STANDARD FOCK OPERATOR" IN DIRECT AO INTEGRAL MODE...
 ONLY THE   14 CORE AND   64 VIRTUAL ORBITALS WILL BE CANONICALIZED

          ----------------------
          MCSCF NATURAL ORBITALS
          ----------------------

                      1          2          3          4          5
                 -432.8954   -56.6209   -50.4654   -50.4653   -50.4653
                     A          A          A          A          A   
    1  AS 1  S    0.999999   0.000003   0.000000   0.000000   0.000000
    2  AS 1  S    0.000001   1.000103   0.000000   0.000000  -0.000000
    3  AS 1  S   -0.000004   0.000135   0.000000   0.000005   0.000000
    4  AS 1  S   -0.000005   0.000143   0.000000   0.000008   0.000000
    5  AS 1  S    0.000016  -0.000426   0.000000  -0.000000  -0.000000
    6  AS 1  S    0.000005  -0.000141   0.000000   0.000002   0.000000
    7  AS 1  X    0.000000   0.000001   0.000000   1.000025   0.000943
    8  AS 1  Y    0.000000   0.000000  -0.000000  -0.000943   1.000024
    9  AS 1  Z   -0.000000   0.000000   1.000026  -0.000000   0.000000
   10  AS 1  X   -0.000000  -0.000000   0.000000  -0.000001  -0.000000
   11  AS 1  Y   -0.000000  -0.000000  -0.000000   0.000000  -0.000004
   12  AS 1  Z   -0.000000   0.000000   0.000001   0.000000   0.000000
   13  AS 1  X   -0.000000   0.000000   0.000000  -0.000085  -0.000000
   14  AS 1  Y   -0.000000   0.000000  -0.000000   0.000000  -0.000093
   15  AS 1  Z   -0.000000   0.000000  -0.000002   0.000000   0.000000
   16  AS 1  X   -0.000000   0.000000  -0.000000  -0.000500  -0.000000
   17  AS 1  Y   -0.000000   0.000000   0.000000   0.000000  -0.000501
   18  AS 1  Z   -0.000000   0.000000  -0.000447   0.000000  -0.000000
   19  AS 1  X   -0.000000   0.000000  -0.000000  -0.000090  -0.000000
   20  AS 1  Y   -0.000000   0.000000  -0.000000   0.000000  -0.000090
   21  AS 1  Z   -0.000000   0.000000  -0.000069   0.000000  -0.000000
   22  AS 1 XX    0.000000  -0.000000   0.000000   0.000002   0.000000
   23  AS 1 YY    0.000000  -0.000001   0.000000  -0.000002  -0.000000
   24  AS 1 ZZ   -0.000000   0.000001   0.000000   0.000000   0.000000
   25  AS 1 XY   -0.000000  -0.000000  -0.000000   0.000000  -0.000002
   26  AS 1 XZ   -0.000000   0.000000  -0.000000   0.000000   0.000000
   27  AS 1 YZ   -0.000000   0.000000   0.000000   0.000000   0.000000
   28  AS 1 XX    0.000000  -0.000002  -0.000000  -0.000054  -0.000000
   29  AS 1 YY    0.000000  -0.000002   0.000000   0.000055   0.000000
   30  AS 1 ZZ   -0.000000   0.000004   0.000000  -0.000002  -0.000000
   31  AS 1 XY    0.000000  -0.000000   0.000000  -0.000000   0.000066
   32  AS 1 XZ   -0.000000   0.000000   0.000000   0.000000  -0.000000
   33  AS 1 YZ    0.000000  -0.000000   0.000000  -0.000000   0.000000
   34  AS 1 XX    0.000000  -0.000002   0.000000  -0.000014  -0.000000
   35  AS 1 YY    0.000000  -0.000002   0.000000   0.000015   0.000000
   36  AS 1 ZZ   -0.000000   0.000004   0.000000  -0.000001  -0.000000
   37  AS 1 XY    0.000000  -0.000000   0.000000  -0.000000   0.000020
   38  AS 1 XZ   -0.000000   0.000000   0.000000   0.000000   0.000000
   39  AS 1 YZ   -0.000000   0.000000   0.000000   0.000000   0.000000
   40  AS 1 XXX   0.000000  -0.000006   0.000000  -0.000011  -0.000000
   41  AS 1 YYY  -0.000000   0.000000  -0.000000   0.000000  -0.000014
   42  AS 1 ZZZ  -0.000000   0.000000  -0.000000   0.000000   0.000000
   43  AS 1 XXY  -0.000000   0.000000  -0.000000   0.000000  -0.000006
   44  AS 1 XXZ  -0.000000   0.000000   0.000000   0.000000  -0.000000
   45  AS 1 YYX  -0.000000   0.000008   0.000000  -0.000008  -0.000000
   46  AS 1 YYZ  -0.000000   0.000000  -0.000000   0.000000   0.000000
   47  AS 1 ZZX   0.000000  -0.000000   0.000000   0.000023   0.000000
   48  AS 1 ZZY   0.000000  -0.000000   0.000000  -0.000000   0.000024
   49  AS 1 XYZ  -0.000000  -0.000000  -0.000000   0.000000   0.000000
   50  H  2  S   -0.000000   0.000006  -0.000000   0.000007  -0.000012
   51  H  2  S   -0.000000   0.000012   0.000000  -0.000037   0.000064
   52  H  2  S   -0.000001   0.000030   0.000000  -0.000024   0.000041
   53  H  2  X   -0.000000   0.000002  -0.000000  -0.000005   0.000007
   54  H  2  Y    0.000000  -0.000003   0.000000   0.000007  -0.000013
   55  H  2  Z    0.000000   0.000000   0.000001   0.000000  -0.000000
   56  H  2  X   -0.000000   0.000004   0.000000  -0.000020   0.000031
   57  H  2  Y    0.000000  -0.000008  -0.000000   0.000031  -0.000056
   58  H  2  Z   -0.000000  -0.000000  -0.000005   0.000000   0.000000
   59  H  2 XX    0.000000  -0.000001   0.000000   0.000005  -0.000002
   60  H  2 YY   -0.000000   0.000005   0.000000  -0.000016   0.000021
   61  H  2 ZZ    0.000000  -0.000004  -0.000000   0.000011  -0.000019
   62  H  2 XY    0.000000  -0.000006  -0.000000   0.000014  -0.000028
   63  H  2 XZ   -0.000000  -0.000000   0.000003   0.000000   0.000000
   64  H  2 YZ    0.000000   0.000000  -0.000006   0.000000   0.000000
   65  H  3  S   -0.000000   0.000006   0.000000   0.000007   0.000012
   66  H  3  S   -0.000000   0.000012  -0.000000  -0.000037  -0.000064
   67  H  3  S   -0.000001   0.000030  -0.000000  -0.000024  -0.000041
   68  H  3  X   -0.000000   0.000002   0.000000  -0.000005  -0.000007
   69  H  3  Y   -0.000000   0.000003   0.000000  -0.000007  -0.000013
   70  H  3  Z   -0.000000  -0.000000   0.000001   0.000000  -0.000000
   71  H  3  X   -0.000000   0.000004  -0.000000  -0.000020  -0.000031
   72  H  3  Y   -0.000000   0.000008  -0.000000  -0.000031  -0.000056
   73  H  3  Z    0.000000   0.000000  -0.000005   0.000000   0.000000
   74  H  3 XX    0.000000  -0.000001  -0.000000   0.000005   0.000002
   75  H  3 YY   -0.000000   0.000005  -0.000000  -0.000016  -0.000021
   76  H  3 ZZ    0.000000  -0.000004   0.000000   0.000011   0.000019
   77  H  3 XY   -0.000000   0.000006  -0.000000  -0.000014  -0.000028
   78  H  3 XZ    0.000000   0.000000   0.000003   0.000000   0.000000
   79  H  3 YZ    0.000000   0.000000   0.000006   0.000000  -0.000000
   80  H  4  S   -0.000000   0.000006   0.000000  -0.000014  -0.000000
   81  H  4  S   -0.000000   0.000011   0.000000   0.000063   0.000000
   82  H  4  S   -0.000001   0.000029   0.000000   0.000046   0.000000
   83  H  4  X    0.000000  -0.000003   0.000000  -0.000016  -0.000000
   84  H  4  Y   -0.000000   0.000000   0.000000   0.000000  -0.000001
   85  H  4  Z   -0.000000   0.000000   0.000001   0.000000  -0.000000
   86  H  4  X    0.000000  -0.000008  -0.000000  -0.000068  -0.000000
   87  H  4  Y   -0.000000   0.000000  -0.000000   0.000000  -0.000002
   88  H  4  Z   -0.000000   0.000000  -0.000005   0.000000   0.000000
   89  H  4 XX   -0.000000   0.000008   0.000000   0.000042   0.000000
   90  H  4 YY    0.000000  -0.000004   0.000000  -0.000020  -0.000000
   91  H  4 ZZ    0.000000  -0.000004   0.000000  -0.000022  -0.000000
   92  H  4 XY   -0.000000   0.000000  -0.000000   0.000000  -0.000004
   93  H  4 XZ   -0.000000   0.000000  -0.000006   0.000000  -0.000000
   94  H  4 YZ   -0.000000   0.000000   0.000000   0.000000   0.000000

                      6          7          8          9         10
                   -8.3450    -6.1998    -6.1997    -6.1964    -2.4338
                     A          A          A          A          A   
    1  AS 1  S   -0.000085   0.000000   0.000003  -0.000000   0.000000
    2  AS 1  S   -0.000609   0.000000   0.000023  -0.000000   0.000000
    3  AS 1  S    0.975257   0.000000   0.000158  -0.000000   0.000000
    4  AS 1  S   -0.001924   0.000000   0.000087  -0.000000   0.000000
    5  AS 1  S    0.036270  -0.000000  -0.000038   0.000000  -0.000000
    6  AS 1  S    0.004132  -0.000000  -0.000023  -0.000000  -0.000000
    7  AS 1  X    0.000002  -0.000000  -0.000106  -0.000000  -0.000000
    8  AS 1  Y    0.000000  -0.000105   0.000000  -0.000000  -0.000213
    9  AS 1  Z    0.000000   0.000000  -0.000000   0.000031  -0.000000
   10  AS 1  X   -0.000059   0.000926   0.974388  -0.000000  -0.000001
   11  AS 1  Y   -0.000000   0.974397  -0.000926   0.000000  -0.000974
   12  AS 1  Z    0.000000  -0.000000   0.000000   0.975679  -0.000000
   13  AS 1  X    0.000018  -0.000001  -0.001007   0.000000  -0.000004
   14  AS 1  Y    0.000000  -0.000992   0.000001  -0.000000  -0.004659
   15  AS 1  Z    0.000000   0.000000  -0.000000   0.000431  -0.000000
   16  AS 1  X   -0.000014   0.000045   0.047809  -0.000000   0.000002
   17  AS 1  Y   -0.000000   0.047781  -0.000045   0.000000   0.001841
   18  AS 1  Z    0.000000  -0.000000   0.000000   0.046644   0.000000
   19  AS 1  X   -0.000007   0.000002   0.002070  -0.000000   0.000002
   20  AS 1  Y   -0.000000   0.002066  -0.000002  -0.000000   0.002558
   21  AS 1  Z    0.000000  -0.000000  -0.000000   0.001652  -0.000000
   22  AS 1 XX    0.000316   0.000001   0.000563  -0.000000  -0.000788
   23  AS 1 YY    0.000331  -0.000001  -0.000594  -0.000000   0.000807
   24  AS 1 ZZ   -0.000647   0.000000   0.000031  -0.000000  -0.000020
   25  AS 1 XY    0.000000  -0.000737   0.000001  -0.000000   0.966677
   26  AS 1 XZ    0.000000  -0.000000  -0.000000  -0.000024   0.000000
   27  AS 1 YZ    0.000000   0.000000   0.000000  -0.000000  -0.000000
   28  AS 1 XX    0.000053  -0.000000  -0.000332   0.000000  -0.000069
   29  AS 1 YY    0.000048   0.000000   0.000341  -0.000000   0.000071
   30  AS 1 ZZ   -0.000101  -0.000000  -0.000009  -0.000000  -0.000002
   31  AS 1 XY   -0.000000   0.000375  -0.000000   0.000000   0.084638
   32  AS 1 XZ    0.000000  -0.000000  -0.000000  -0.000014   0.000000
   33  AS 1 YZ    0.000000   0.000000  -0.000000  -0.000000  -0.000000
   34  AS 1 XX   -0.000014  -0.000000  -0.000211  -0.000000  -0.000000
   35  AS 1 YY   -0.000016   0.000000   0.000215   0.000000   0.000001
   36  AS 1 ZZ    0.000031  -0.000000  -0.000004   0.000000  -0.000000
   37  AS 1 XY   -0.000000   0.000248  -0.000000   0.000000   0.000548
   38  AS 1 XZ    0.000000   0.000000   0.000000   0.000006  -0.000000
   39  AS 1 YZ   -0.000000   0.000000  -0.000000   0.000000   0.000000
   40  AS 1 XXX   0.000050   0.000000   0.000056  -0.000000  -0.000000
   41  AS 1 YYY   0.000000   0.000060  -0.000000  -0.000000  -0.000410
   42  AS 1 ZZZ   0.000000   0.000000  -0.000000  -0.000215  -0.000000
   43  AS 1 XXY   0.000000   0.000018  -0.000000  -0.000000  -0.000251
   44  AS 1 XXZ   0.000000  -0.000000  -0.000000   0.000142   0.000000
   45  AS 1 YYX  -0.000065   0.000000   0.000018   0.000000  -0.000000
   46  AS 1 YYZ   0.000000   0.000000  -0.000000   0.000147   0.000000
   47  AS 1 ZZX  -0.000001  -0.000000  -0.000094  -0.000000   0.000001
   48  AS 1 ZZY  -0.000000  -0.000098   0.000000   0.000000   0.000800
   49  AS 1 XYZ   0.000000  -0.000000   0.000000   0.000000  -0.000000
   50  H  2  S    0.000002   0.000378  -0.000217  -0.000000  -0.004868
   51  H  2  S    0.000339   0.001732  -0.001022   0.000000  -0.002292
   52  H  2  S   -0.000682  -0.000606   0.000353   0.000000  -0.001477
   53  H  2  X   -0.000002   0.000031   0.000006   0.000000  -0.000517
   54  H  2  Y    0.000004  -0.000030   0.000031   0.000000   0.001357
   55  H  2  Z   -0.000000   0.000000  -0.000000   0.000011   0.000000
   56  H  2  X    0.000006   0.000261  -0.000049   0.000000   0.000492
   57  H  2  Y   -0.000010  -0.000347   0.000272  -0.000000   0.000139
   58  H  2  Z    0.000000   0.000000   0.000000   0.000125  -0.000000
   59  H  2 XX   -0.000004  -0.000054   0.000000  -0.000000   0.000254
   60  H  2 YY    0.000027   0.000139  -0.000050   0.000000  -0.000680
   61  H  2 ZZ   -0.000023  -0.000085   0.000050  -0.000000   0.000426
   62  H  2 XY   -0.000032  -0.000156   0.000112  -0.000000   0.000624
   63  H  2 XZ   -0.000000   0.000000   0.000000  -0.000017  -0.000000
   64  H  2 YZ    0.000000  -0.000000  -0.000000   0.000030  -0.000000
   65  H  3  S    0.000002  -0.000378  -0.000217   0.000000   0.004874
   66  H  3  S    0.000339  -0.001734  -0.001019  -0.000000   0.002294
   67  H  3  S   -0.000682   0.000607   0.000352  -0.000000   0.001479
   68  H  3  X   -0.000002  -0.000031   0.000006  -0.000000   0.000519
   69  H  3  Y   -0.000004  -0.000030  -0.000031   0.000000   0.001359
   70  H  3  Z    0.000000  -0.000000   0.000000   0.000011   0.000000
   71  H  3  X    0.000006  -0.000261  -0.000048  -0.000000  -0.000490
   72  H  3  Y    0.000010  -0.000347  -0.000271  -0.000000   0.000138
   73  H  3  Z   -0.000000   0.000000  -0.000000   0.000125  -0.000000
   74  H  3 XX   -0.000004   0.000054   0.000000   0.000000  -0.000254
   75  H  3 YY    0.000027  -0.000139  -0.000050  -0.000000   0.000680
   76  H  3 ZZ   -0.000023   0.000085   0.000050   0.000000  -0.000426
   77  H  3 XY    0.000032  -0.000156  -0.000112  -0.000000   0.000625
   78  H  3 XZ    0.000000   0.000000  -0.000000  -0.000017  -0.000000
   79  H  3 YZ    0.000000   0.000000  -0.000000  -0.000030   0.000000
   80  H  4  S    0.000003   0.000000   0.000417   0.000000  -0.000005
   81  H  4  S    0.000322   0.000002   0.001954  -0.000000  -0.000003
   82  H  4  S   -0.000668  -0.000001  -0.000685   0.000000  -0.000002
   83  H  4  X    0.000013  -0.000000  -0.000016  -0.000000   0.000001
   84  H  4  Y   -0.000000   0.000024  -0.000000   0.000000   0.000430
   85  H  4  Z    0.000000  -0.000000  -0.000000   0.000011   0.000000
   86  H  4  X   -0.000010  -0.000000  -0.000498   0.000000  -0.000000
   87  H  4  Y   -0.000000   0.000108  -0.000000  -0.000000   0.001009
   88  H  4  Z    0.000000  -0.000000  -0.000000   0.000122  -0.000000
   89  H  4 XX    0.000033   0.000000   0.000203  -0.000000  -0.000001
   90  H  4 YY   -0.000015  -0.000000  -0.000123  -0.000000   0.000001
   91  H  4 ZZ   -0.000018  -0.000000  -0.000080  -0.000000   0.000000
   92  H  4 XY   -0.000000   0.000035  -0.000000  -0.000000  -0.000298
   93  H  4 XZ    0.000000   0.000000   0.000000   0.000036   0.000000
   94  H  4 YZ    0.000000   0.000000  -0.000000  -0.000000  -0.000000

                     11         12         13         14         15
                   -2.4337    -2.4296    -2.4287    -2.4287     1.9719
                     A          A          A          A          A   
    1  AS 1  S    0.000005  -0.000097  -0.000000  -0.000000   0.000443
    2  AS 1  S    0.000031  -0.000645  -0.000000  -0.000000   0.002661
    3  AS 1  S    0.000086  -0.001511  -0.000000  -0.000000   0.004355
    4  AS 1  S    0.000007  -0.003264  -0.000000  -0.000000   0.556845
    5  AS 1  S   -0.000121   0.000601   0.000000   0.000000   0.235462
    6  AS 1  S   -0.000079   0.003475  -0.000000  -0.000000   0.130883
    7  AS 1  X   -0.000220   0.000002   0.000000   0.000000   0.000072
    8  AS 1  Y    0.000000   0.000000   0.000000  -0.000000   0.000000
    9  AS 1  Z    0.000000   0.000000   0.000005   0.000000  -0.000000
   10  AS 1  X   -0.001135  -0.000015   0.000000   0.000000   0.000917
   11  AS 1  Y    0.000001  -0.000000   0.000000  -0.000000   0.000002
   12  AS 1  Z    0.000000   0.000000   0.000078   0.000000  -0.000000
   13  AS 1  X   -0.004670   0.000059   0.000000   0.000000  -0.001038
   14  AS 1  Y    0.000004   0.000000   0.000000  -0.000000  -0.000002
   15  AS 1  Z    0.000000   0.000000  -0.000002  -0.000000   0.000000
   16  AS 1  X    0.001941   0.000010  -0.000000  -0.000000  -0.001064
   17  AS 1  Y   -0.000002   0.000000  -0.000000  -0.000000  -0.000002
   18  AS 1  Z    0.000000   0.000000  -0.000081  -0.000000   0.000000
   19  AS 1  X    0.002565   0.000020   0.000000   0.000000   0.000064
   20  AS 1  Y   -0.000002   0.000000   0.000000  -0.000000   0.000000
   21  AS 1  Z    0.000000   0.000000  -0.000020  -0.000000   0.000000
   22  AS 1 XX   -0.833656  -0.490159   0.000000   0.000000  -0.013876
   23  AS 1 YY    0.840685  -0.477905  -0.000000   0.000000  -0.014756
   24  AS 1 ZZ   -0.007029   0.968064  -0.000000  -0.000000   0.028632
   25  AS 1 XY   -0.000921   0.000013  -0.000000   0.000000  -0.000001
   26  AS 1 XZ    0.000000   0.000000   0.968386   0.001102  -0.000000
   27  AS 1 YZ    0.000000   0.000000  -0.001102   0.968370   0.000000
   28  AS 1 XX   -0.072986  -0.041616   0.000000   0.000000   0.008159
   29  AS 1 YY    0.073612  -0.040605  -0.000000   0.000000   0.008754
   30  AS 1 ZZ   -0.000626   0.082220  -0.000000  -0.000000  -0.016913
   31  AS 1 XY   -0.000081   0.000001  -0.000000   0.000000   0.000001
   32  AS 1 XZ    0.000000   0.000000   0.082200   0.000094   0.000000
   33  AS 1 YZ    0.000000   0.000000  -0.000094   0.082225  -0.000000
   34  AS 1 XX   -0.000411  -0.000630   0.000000   0.000000   0.004373
   35  AS 1 YY    0.000449  -0.000714  -0.000000  -0.000000   0.004362
   36  AS 1 ZZ   -0.000038   0.001344   0.000000   0.000000  -0.008735
   37  AS 1 XY   -0.000000  -0.000000  -0.000000   0.000000  -0.000000
   38  AS 1 XZ    0.000000   0.000000   0.000960   0.000001   0.000000
   39  AS 1 YZ    0.000000   0.000000  -0.000001   0.000964   0.000000
   40  AS 1 XXX  -0.000386  -0.000995  -0.000000  -0.000000   0.013400
   41  AS 1 YYY   0.000000   0.000000   0.000000  -0.000000  -0.000000
   42  AS 1 ZZZ  -0.000000   0.000000   0.000018   0.000000   0.000000
   43  AS 1 XXY   0.000000   0.000000   0.000000  -0.000000  -0.000000
   44  AS 1 XXZ   0.000000   0.000000   0.000203   0.000000   0.000000
   45  AS 1 YYX  -0.000258   0.001373   0.000000   0.000000  -0.018102
   46  AS 1 YYZ   0.000000   0.000000  -0.000228  -0.000000   0.000000
   47  AS 1 ZZX   0.000776  -0.000038  -0.000000  -0.000000   0.000123
   48  AS 1 ZZY  -0.000001  -0.000000  -0.000000   0.000000   0.000000
   49  AS 1 XYZ  -0.000000  -0.000000   0.000000  -0.000297   0.000000
   50  H  2  S    0.002820  -0.002844   0.000000  -0.000000   0.075266
   51  H  2  S    0.001287  -0.000852  -0.000000   0.000000   0.108333
   52  H  2  S    0.000869  -0.000345  -0.000000   0.000000   0.010121
   53  H  2  X    0.000761  -0.000451  -0.000000   0.000000   0.003533
   54  H  2  Y   -0.000521   0.000785   0.000000  -0.000000  -0.006127
   55  H  2  Z   -0.000000   0.000000  -0.000229   0.000395   0.000000
   56  H  2  X    0.000725   0.000083  -0.000000   0.000000   0.006373
   57  H  2  Y    0.000520  -0.000123   0.000000  -0.000000  -0.011116
   58  H  2  Z   -0.000000   0.000000  -0.000582   0.000992   0.000000
   59  H  2 XX    0.000131  -0.000015   0.000000  -0.000000   0.000003
   60  H  2 YY    0.000119  -0.000392  -0.000000   0.000000   0.001603
   61  H  2 ZZ   -0.000250   0.000407   0.000000  -0.000000  -0.001606
   62  H  2 XY   -0.000547   0.000373   0.000000  -0.000000  -0.001569
   63  H  2 XZ    0.000000   0.000000  -0.000031   0.000233  -0.000000
   64  H  2 YZ    0.000000  -0.000000   0.000233  -0.000296   0.000000
   65  H  3  S    0.002811  -0.002844  -0.000000   0.000000   0.075271
   66  H  3  S    0.001283  -0.000852   0.000000   0.000000   0.108338
   67  H  3  S    0.000867  -0.000345   0.000000   0.000000   0.010120
   68  H  3  X    0.000760  -0.000451   0.000000   0.000000   0.003533
   69  H  3  Y    0.000518  -0.000785   0.000000   0.000000   0.006128
   70  H  3  Z   -0.000000  -0.000000  -0.000228  -0.000395  -0.000000
   71  H  3  X    0.000726   0.000083   0.000000   0.000000   0.006374
   72  H  3  Y   -0.000520   0.000123   0.000000   0.000000   0.011117
   73  H  3  Z    0.000000  -0.000000  -0.000579  -0.000993  -0.000000
   74  H  3 XX    0.000132  -0.000015  -0.000000  -0.000000   0.000003
   75  H  3 YY    0.000118  -0.000392   0.000000   0.000000   0.001603
   76  H  3 ZZ   -0.000249   0.000407  -0.000000  -0.000000  -0.001606
   77  H  3 XY    0.000546  -0.000373   0.000000   0.000000   0.001569
   78  H  3 XZ   -0.000000  -0.000000  -0.000031  -0.000233   0.000000
   79  H  3 YZ    0.000000  -0.000000  -0.000233  -0.000296   0.000000
   80  H  4  S   -0.005360  -0.002751   0.000000   0.000000   0.073053
   81  H  4  S   -0.002732  -0.000992  -0.000000  -0.000000   0.106152
   82  H  4  S   -0.001724  -0.000375  -0.000000  -0.000000   0.010163
   83  H  4  X    0.001537   0.000855  -0.000000  -0.000000  -0.006818
   84  H  4  Y   -0.000000   0.000000  -0.000000  -0.000000  -0.000000
   85  H  4  Z   -0.000000   0.000000   0.000420   0.000000   0.000000
   86  H  4  X   -0.000098  -0.000090   0.000000   0.000000  -0.012548
   87  H  4  Y   -0.000001   0.000000   0.000000  -0.000000  -0.000000
   88  H  4  Z    0.000000   0.000000   0.001142   0.000001   0.000000
   89  H  4 XX   -0.000992  -0.000557  -0.000000  -0.000000   0.002287
   90  H  4 YY    0.000533   0.000165   0.000000   0.000000  -0.000739
   91  H  4 ZZ    0.000459   0.000392   0.000000  -0.000000  -0.001548
   92  H  4 XY    0.000000  -0.000000   0.000000  -0.000000   0.000000
   93  H  4 XZ    0.000000   0.000000  -0.000399  -0.000000   0.000000
   94  H  4 YZ   -0.000000   0.000000  -0.000000   0.000102   0.000000

                     16         17         18         19         20
                    1.7207     1.7200     1.2382     0.2905     0.0298
                     A          A          A          A          A   
    1  AS 1  S    0.000000   0.000030   0.000000   0.001257  -0.000318
    2  AS 1  S    0.000001   0.000204   0.000000   0.009552  -0.002217
    3  AS 1  S    0.000002   0.000821  -0.000000   0.063179  -0.009858
    4  AS 1  S    0.000009   0.003385  -0.000000   0.491127  -0.025200
    5  AS 1  S    0.000003   0.001092   0.000000   0.249824  -0.010446
    6  AS 1  S    0.000009   0.003275   0.000000   0.660919   0.000493
    7  AS 1  X   -0.000004  -0.003945   0.000000   0.000032   0.013969
    8  AS 1  Y   -0.004058   0.000003   0.000000   0.000000  -0.000014
    9  AS 1  Z    0.000000  -0.000000  -0.000249   0.000000  -0.000000
   10  AS 1  X   -0.000047  -0.052606   0.000000   0.000697   0.188879
   11  AS 1  Y   -0.053980   0.000046  -0.000000   0.000001  -0.000190
   12  AS 1  Z    0.000000   0.000000  -0.001193   0.000000  -0.000000
   13  AS 1  X    0.000317   0.364740   0.000000   0.014614   0.973394
   14  AS 1  Y    0.363624  -0.000318  -0.000000   0.000026  -0.000977
   15  AS 1  Z    0.000000  -0.000000   0.613175   0.000000  -0.000000
   16  AS 1  X    0.000146   0.166768   0.000000   0.005486   0.263164
   17  AS 1  Y    0.167421  -0.000145   0.000000   0.000010  -0.000264
   18  AS 1  Z   -0.000000  -0.000000   0.226752   0.000000   0.000000
   19  AS 1  X    0.000057   0.066588   0.000000   0.010143   0.212369
   20  AS 1  Y    0.065275  -0.000058  -0.000000   0.000018  -0.000213
   21  AS 1  Z   -0.000000  -0.000000   0.294909   0.000000  -0.000000
   22  AS 1 XX   -0.000047  -0.052973   0.000000   0.059416   0.101395
   23  AS 1 YY    0.000048   0.053410   0.000000   0.056365  -0.105482
   24  AS 1 ZZ   -0.000001  -0.000437   0.000000  -0.115781   0.004087
   25  AS 1 XY    0.062481  -0.000054   0.000000  -0.000003   0.000120
   26  AS 1 XZ    0.000000  -0.000000   0.000147   0.000000  -0.000000
   27  AS 1 YZ   -0.000000  -0.000000   0.000000   0.000000  -0.000000
   28  AS 1 XX    0.000025   0.027983   0.000000  -0.048910  -0.059370
   29  AS 1 YY   -0.000025  -0.028211  -0.000000  -0.046884   0.062120
   30  AS 1 ZZ    0.000001   0.000228   0.000000   0.095794  -0.002750
   31  AS 1 XY   -0.032971   0.000028   0.000000   0.000002  -0.000070
   32  AS 1 XZ    0.000000  -0.000000  -0.000016  -0.000000  -0.000000
   33  AS 1 YZ    0.000000  -0.000000  -0.000000   0.000000  -0.000000
   34  AS 1 XX    0.000018   0.021118   0.000000  -0.095235   0.040766
   35  AS 1 YY   -0.000019  -0.021229  -0.000000  -0.089706  -0.039355
   36  AS 1 ZZ    0.000000   0.000110   0.000000   0.184941  -0.001411
   37  AS 1 XY   -0.024549   0.000021   0.000000   0.000006   0.000047
   38  AS 1 XZ    0.000000  -0.000000   0.000188   0.000000   0.000000
   39  AS 1 YZ    0.000000   0.000000   0.000000  -0.000000  -0.000000
   40  AS 1 XXX   0.000006   0.007616   0.000000  -0.044288  -0.004704
   41  AS 1 YYY   0.007808  -0.000007  -0.000000  -0.000000   0.000007
   42  AS 1 ZZZ  -0.000000  -0.000000  -0.014268   0.000000  -0.000000
   43  AS 1 XXY   0.003575  -0.000003   0.000000  -0.000000   0.000002
   44  AS 1 XXZ   0.000000  -0.000000   0.009570   0.000000  -0.000000
   45  AS 1 YYX   0.000004   0.003717   0.000000   0.058927  -0.005185
   46  AS 1 YYZ   0.000000  -0.000000   0.009572   0.000000   0.000000
   47  AS 1 ZZX  -0.000012  -0.013935  -0.000000   0.000492   0.011495
   48  AS 1 ZZY  -0.014051   0.000012   0.000000   0.000001  -0.000012
   49  AS 1 XYZ   0.000000  -0.000000  -0.000000   0.000000  -0.000000
   50  H  2  S    0.141031  -0.081236  -0.000000  -0.137636   0.139765
   51  H  2  S    0.246407  -0.141917   0.000000  -0.320805   0.394577
   52  H  2  S    0.069839  -0.040744   0.000000  -0.297130   0.032518
   53  H  2  X    0.005856  -0.001379   0.000000   0.000693   0.008299
   54  H  2  Y   -0.008163   0.005818  -0.000000  -0.000886  -0.001941
   55  H  2  Z    0.000000  -0.000000   0.004574   0.000000   0.000000
   56  H  2  X    0.014248  -0.002388  -0.000000   0.000287   0.062477
   57  H  2  Y   -0.018991   0.014126  -0.000000   0.000688  -0.042720
   58  H  2  Z    0.000000  -0.000000   0.023202   0.000000   0.000000
   59  H  2 XX    0.000229   0.001450   0.000000  -0.000405   0.003748
   60  H  2 YY    0.001697  -0.002560   0.000000  -0.000110   0.000447
   61  H  2 ZZ   -0.001926   0.001110  -0.000000   0.000515  -0.004195
   62  H  2 XY   -0.003327   0.000844  -0.000000  -0.000459  -0.007263
   63  H  2 XZ    0.000000   0.000000   0.001333   0.000000   0.000000
   64  H  2 YZ   -0.000000   0.000000  -0.002307   0.000000  -0.000000
   65  H  3  S   -0.141174  -0.080991   0.000000  -0.137625   0.139305
   66  H  3  S   -0.246652  -0.141487  -0.000000  -0.320775   0.393257
   67  H  3  S   -0.069910  -0.040621  -0.000000  -0.297098   0.032393
   68  H  3  X   -0.005859  -0.001368  -0.000000   0.000692   0.008297
   69  H  3  Y   -0.008173  -0.005804  -0.000000   0.000885   0.001922
   70  H  3  Z    0.000000  -0.000000   0.004575  -0.000000  -0.000000
   71  H  3  X   -0.014252  -0.002363   0.000000   0.000287   0.062398
   72  H  3  Y   -0.019015  -0.014093  -0.000000  -0.000686   0.042501
   73  H  3  Z    0.000000   0.000000   0.023203  -0.000000  -0.000000
   74  H  3 XX   -0.000227   0.001450  -0.000000  -0.000406   0.003753
   75  H  3 YY   -0.001701  -0.002557  -0.000000  -0.000110   0.000428
   76  H  3 ZZ    0.001928   0.001107   0.000000   0.000515  -0.004181
   77  H  3 XY   -0.003328  -0.000838  -0.000000   0.000459   0.007250
   78  H  3 XZ    0.000000  -0.000000   0.001333  -0.000000  -0.000000
   79  H  3 YZ    0.000000   0.000000   0.002307   0.000000  -0.000000
   80  H  4  S    0.000142   0.161687   0.000000  -0.142699  -0.258070
   81  H  4  S    0.000250   0.285059  -0.000000  -0.335458  -0.745047
   82  H  4  S    0.000070   0.081385  -0.000000  -0.313089  -0.075151
   83  H  4  X   -0.000010  -0.011359   0.000000  -0.001279   0.009866
   84  H  4  Y    0.001883  -0.000002   0.000000   0.000000  -0.000007
   85  H  4  Z   -0.000000  -0.000000   0.004431   0.000000  -0.000000
   86  H  4  X   -0.000024  -0.027425   0.000000   0.001030   0.129248
   87  H  4  Y    0.005607  -0.000005  -0.000000   0.000001  -0.000036
   88  H  4  Z   -0.000000  -0.000000   0.023022   0.000000   0.000000
   89  H  4 XX    0.000004   0.004428   0.000000   0.000287  -0.012503
   90  H  4 YY   -0.000002  -0.002187   0.000000  -0.000721   0.004923
   91  H  4 ZZ   -0.000002  -0.002241   0.000000   0.000434   0.007580
   92  H  4 XY   -0.001763   0.000002  -0.000000  -0.000000   0.000006
   93  H  4 XZ    0.000000  -0.000000  -0.002640   0.000000  -0.000000
   94  H  4 YZ    0.000000  -0.000000   0.000000   0.000000   0.000000

                     21
                    0.0290
                     A   
    1  AS 1  S   -0.000001
    2  AS 1  S   -0.000006
    3  AS 1  S   -0.000028
    4  AS 1  S   -0.000071
    5  AS 1  S   -0.000030
    6  AS 1  S    0.000002
    7  AS 1  X    0.000015
    8  AS 1  Y    0.014512
    9  AS 1  Z   -0.000000
   10  AS 1  X    0.000196
   11  AS 1  Y    0.195654
   12  AS 1  Z   -0.000000
   13  AS 1  X    0.000988
   14  AS 1  Y    0.987107
   15  AS 1  Z   -0.000000
   16  AS 1  X    0.000265
   17  AS 1  Y    0.264594
   18  AS 1  Z    0.000000
   19  AS 1  X    0.000211
   20  AS 1  Y    0.210539
   21  AS 1  Z    0.000000
   22  AS 1 XX    0.000099
   23  AS 1 YY   -0.000111
   24  AS 1 ZZ    0.000011
   25  AS 1 XY   -0.121245
   26  AS 1 XZ   -0.000000
   27  AS 1 YZ   -0.000000
   28  AS 1 XX   -0.000057
   29  AS 1 YY    0.000064
   30  AS 1 ZZ   -0.000008
   31  AS 1 XY    0.069717
   32  AS 1 XZ   -0.000000
   33  AS 1 YZ    0.000000
   34  AS 1 XX    0.000045
   35  AS 1 YY   -0.000041
   36  AS 1 ZZ   -0.000004
   37  AS 1 XY   -0.049488
   38  AS 1 XZ    0.000000
   39  AS 1 YZ   -0.000000
   40  AS 1 XXX  -0.000001
   41  AS 1 YYY  -0.006295
   42  AS 1 ZZZ  -0.000000
   43  AS 1 XXY  -0.002394
   44  AS 1 XXZ  -0.000000
   45  AS 1 YYX  -0.000009
   46  AS 1 YYZ   0.000000
   47  AS 1 ZZX   0.000011
   48  AS 1 ZZY   0.010840
   49  AS 1 XYZ   0.000000
   50  H  2  S   -0.232201
   51  H  2  S   -0.666039
   52  H  2  S   -0.058497
   53  H  2  X   -0.001641
   54  H  2  Y    0.010273
   55  H  2  Z   -0.000000
   56  H  2  X   -0.041618
   57  H  2  Y    0.111739
   58  H  2  Z   -0.000000
   59  H  2 XX    0.002885
   60  H  2 YY   -0.009874
   61  H  2 ZZ    0.006989
   62  H  2 XY    0.006478
   63  H  2 XZ   -0.000000
   64  H  2 YZ    0.000000
   65  H  3  S    0.232510
   66  H  3  S    0.666889
   67  H  3  S    0.058545
   68  H  3  X    0.001659
   69  H  3  Y    0.010279
   70  H  3  Z   -0.000000
   71  H  3  X    0.041750
   72  H  3  Y    0.111834
   73  H  3  Z   -0.000000
   74  H  3 XX   -0.002877
   75  H  3 YY    0.009876
   76  H  3 ZZ   -0.006999
   77  H  3 XY    0.006493
   78  H  3 XZ    0.000000
   79  H  3 YZ   -0.000000
   80  H  4  S   -0.000249
   81  H  4  S   -0.000730
   82  H  4  S   -0.000078
   83  H  4  X    0.000010
   84  H  4  Y    0.007014
   85  H  4  Z    0.000000
   86  H  4  X    0.000129
   87  H  4  Y    0.037832
   88  H  4  Z    0.000000
   89  H  4 XX   -0.000012
   90  H  4 YY    0.000005
   91  H  4 ZZ    0.000007
   92  H  4 XY   -0.006136
   93  H  4 XZ    0.000000
   94  H  4 YZ   -0.000000

          ------------------------
          MCSCF OPTIMIZED ORBITALS
          ------------------------

                      1          2          3          4          5
                 -432.8954   -56.6209   -50.4654   -50.4653   -50.4653
                     A          A          A          A          A   
    1  AS 1  S    0.999999   0.000003   0.000000   0.000000   0.000000
    2  AS 1  S    0.000001   1.000103   0.000000   0.000000  -0.000000
    3  AS 1  S   -0.000004   0.000135   0.000000   0.000005   0.000000
    4  AS 1  S   -0.000005   0.000143   0.000000   0.000008   0.000000
    5  AS 1  S    0.000016  -0.000426   0.000000  -0.000000  -0.000000
    6  AS 1  S    0.000005  -0.000141   0.000000   0.000002   0.000000
    7  AS 1  X    0.000000   0.000001   0.000000   1.000025   0.000943
    8  AS 1  Y    0.000000   0.000000  -0.000000  -0.000943   1.000024
    9  AS 1  Z   -0.000000   0.000000   1.000026  -0.000000   0.000000
   10  AS 1  X   -0.000000  -0.000000   0.000000  -0.000001  -0.000000
   11  AS 1  Y   -0.000000  -0.000000  -0.000000   0.000000  -0.000004
   12  AS 1  Z   -0.000000   0.000000   0.000001   0.000000   0.000000
   13  AS 1  X   -0.000000   0.000000   0.000000  -0.000085  -0.000000
   14  AS 1  Y   -0.000000   0.000000  -0.000000   0.000000  -0.000093
   15  AS 1  Z   -0.000000   0.000000  -0.000002   0.000000   0.000000
   16  AS 1  X   -0.000000   0.000000  -0.000000  -0.000500  -0.000000
   17  AS 1  Y   -0.000000   0.000000   0.000000   0.000000  -0.000501
   18  AS 1  Z   -0.000000   0.000000  -0.000447   0.000000  -0.000000
   19  AS 1  X   -0.000000   0.000000  -0.000000  -0.000090  -0.000000
   20  AS 1  Y   -0.000000   0.000000  -0.000000   0.000000  -0.000090
   21  AS 1  Z   -0.000000   0.000000  -0.000069   0.000000  -0.000000
   22  AS 1 XX    0.000000  -0.000000   0.000000   0.000002   0.000000
   23  AS 1 YY    0.000000  -0.000001   0.000000  -0.000002  -0.000000
   24  AS 1 ZZ   -0.000000   0.000001   0.000000   0.000000   0.000000
   25  AS 1 XY   -0.000000  -0.000000  -0.000000   0.000000  -0.000002
   26  AS 1 XZ   -0.000000   0.000000  -0.000000   0.000000   0.000000
   27  AS 1 YZ   -0.000000   0.000000   0.000000   0.000000   0.000000
   28  AS 1 XX    0.000000  -0.000002  -0.000000  -0.000054  -0.000000
   29  AS 1 YY    0.000000  -0.000002   0.000000   0.000055   0.000000
   30  AS 1 ZZ   -0.000000   0.000004   0.000000  -0.000002  -0.000000
   31  AS 1 XY    0.000000  -0.000000   0.000000  -0.000000   0.000066
   32  AS 1 XZ   -0.000000   0.000000   0.000000   0.000000  -0.000000
   33  AS 1 YZ    0.000000  -0.000000   0.000000  -0.000000   0.000000
   34  AS 1 XX    0.000000  -0.000002   0.000000  -0.000014  -0.000000
   35  AS 1 YY    0.000000  -0.000002   0.000000   0.000015   0.000000
   36  AS 1 ZZ   -0.000000   0.000004   0.000000  -0.000001  -0.000000
   37  AS 1 XY    0.000000  -0.000000   0.000000  -0.000000   0.000020
   38  AS 1 XZ   -0.000000   0.000000   0.000000   0.000000   0.000000
   39  AS 1 YZ   -0.000000   0.000000   0.000000   0.000000   0.000000
   40  AS 1 XXX   0.000000  -0.000006   0.000000  -0.000011  -0.000000
   41  AS 1 YYY  -0.000000   0.000000  -0.000000   0.000000  -0.000014
   42  AS 1 ZZZ  -0.000000   0.000000  -0.000000   0.000000   0.000000
   43  AS 1 XXY  -0.000000   0.000000  -0.000000   0.000000  -0.000006
   44  AS 1 XXZ  -0.000000   0.000000   0.000000   0.000000  -0.000000
   45  AS 1 YYX  -0.000000   0.000008   0.000000  -0.000008  -0.000000
   46  AS 1 YYZ  -0.000000   0.000000  -0.000000   0.000000   0.000000
   47  AS 1 ZZX   0.000000  -0.000000   0.000000   0.000023   0.000000
   48  AS 1 ZZY   0.000000  -0.000000   0.000000  -0.000000   0.000024
   49  AS 1 XYZ  -0.000000  -0.000000  -0.000000   0.000000   0.000000
   50  H  2  S   -0.000000   0.000006  -0.000000   0.000007  -0.000012
   51  H  2  S   -0.000000   0.000012   0.000000  -0.000037   0.000064
   52  H  2  S   -0.000001   0.000030   0.000000  -0.000024   0.000041
   53  H  2  X   -0.000000   0.000002  -0.000000  -0.000005   0.000007
   54  H  2  Y    0.000000  -0.000003   0.000000   0.000007  -0.000013
   55  H  2  Z    0.000000   0.000000   0.000001   0.000000  -0.000000
   56  H  2  X   -0.000000   0.000004   0.000000  -0.000020   0.000031
   57  H  2  Y    0.000000  -0.000008  -0.000000   0.000031  -0.000056
   58  H  2  Z   -0.000000  -0.000000  -0.000005   0.000000   0.000000
   59  H  2 XX    0.000000  -0.000001   0.000000   0.000005  -0.000002
   60  H  2 YY   -0.000000   0.000005   0.000000  -0.000016   0.000021
   61  H  2 ZZ    0.000000  -0.000004  -0.000000   0.000011  -0.000019
   62  H  2 XY    0.000000  -0.000006  -0.000000   0.000014  -0.000028
   63  H  2 XZ   -0.000000  -0.000000   0.000003   0.000000   0.000000
   64  H  2 YZ    0.000000   0.000000  -0.000006   0.000000   0.000000
   65  H  3  S   -0.000000   0.000006   0.000000   0.000007   0.000012
   66  H  3  S   -0.000000   0.000012  -0.000000  -0.000037  -0.000064
   67  H  3  S   -0.000001   0.000030  -0.000000  -0.000024  -0.000041
   68  H  3  X   -0.000000   0.000002   0.000000  -0.000005  -0.000007
   69  H  3  Y   -0.000000   0.000003   0.000000  -0.000007  -0.000013
   70  H  3  Z   -0.000000  -0.000000   0.000001   0.000000  -0.000000
   71  H  3  X   -0.000000   0.000004  -0.000000  -0.000020  -0.000031
   72  H  3  Y   -0.000000   0.000008  -0.000000  -0.000031  -0.000056
   73  H  3  Z    0.000000   0.000000  -0.000005   0.000000   0.000000
   74  H  3 XX    0.000000  -0.000001  -0.000000   0.000005   0.000002
   75  H  3 YY   -0.000000   0.000005  -0.000000  -0.000016  -0.000021
   76  H  3 ZZ    0.000000  -0.000004   0.000000   0.000011   0.000019
   77  H  3 XY   -0.000000   0.000006  -0.000000  -0.000014  -0.000028
   78  H  3 XZ    0.000000   0.000000   0.000003   0.000000   0.000000
   79  H  3 YZ    0.000000   0.000000   0.000006   0.000000  -0.000000
   80  H  4  S   -0.000000   0.000006   0.000000  -0.000014  -0.000000
   81  H  4  S   -0.000000   0.000011   0.000000   0.000063   0.000000
   82  H  4  S   -0.000001   0.000029   0.000000   0.000046   0.000000
   83  H  4  X    0.000000  -0.000003   0.000000  -0.000016  -0.000000
   84  H  4  Y   -0.000000   0.000000   0.000000   0.000000  -0.000001
   85  H  4  Z   -0.000000   0.000000   0.000001   0.000000  -0.000000
   86  H  4  X    0.000000  -0.000008  -0.000000  -0.000068  -0.000000
   87  H  4  Y   -0.000000   0.000000  -0.000000   0.000000  -0.000002
   88  H  4  Z   -0.000000   0.000000  -0.000005   0.000000   0.000000
   89  H  4 XX   -0.000000   0.000008   0.000000   0.000042   0.000000
   90  H  4 YY    0.000000  -0.000004   0.000000  -0.000020  -0.000000
   91  H  4 ZZ    0.000000  -0.000004   0.000000  -0.000022  -0.000000
   92  H  4 XY   -0.000000   0.000000  -0.000000   0.000000  -0.000004
   93  H  4 XZ   -0.000000   0.000000  -0.000006   0.000000  -0.000000
   94  H  4 YZ   -0.000000   0.000000   0.000000   0.000000   0.000000

                      6          7          8          9         10
                   -8.3450    -6.1998    -6.1997    -6.1964    -2.4338
                     A          A          A          A          A   
    1  AS 1  S   -0.000085   0.000000   0.000003  -0.000000   0.000000
    2  AS 1  S   -0.000609   0.000000   0.000023  -0.000000   0.000000
    3  AS 1  S    0.975257   0.000000   0.000158  -0.000000   0.000000
    4  AS 1  S   -0.001924   0.000000   0.000087  -0.000000   0.000000
    5  AS 1  S    0.036270  -0.000000  -0.000038   0.000000  -0.000000
    6  AS 1  S    0.004132  -0.000000  -0.000023  -0.000000  -0.000000
    7  AS 1  X    0.000002  -0.000000  -0.000106  -0.000000  -0.000000
    8  AS 1  Y    0.000000  -0.000105   0.000000  -0.000000  -0.000213
    9  AS 1  Z    0.000000   0.000000  -0.000000   0.000031  -0.000000
   10  AS 1  X   -0.000059   0.000926   0.974388  -0.000000  -0.000001
   11  AS 1  Y   -0.000000   0.974397  -0.000926   0.000000  -0.000974
   12  AS 1  Z    0.000000  -0.000000   0.000000   0.975679  -0.000000
   13  AS 1  X    0.000018  -0.000001  -0.001007   0.000000  -0.000004
   14  AS 1  Y    0.000000  -0.000992   0.000001  -0.000000  -0.004659
   15  AS 1  Z    0.000000   0.000000  -0.000000   0.000431  -0.000000
   16  AS 1  X   -0.000014   0.000045   0.047809  -0.000000   0.000002
   17  AS 1  Y   -0.000000   0.047781  -0.000045   0.000000   0.001841
   18  AS 1  Z    0.000000  -0.000000   0.000000   0.046644   0.000000
   19  AS 1  X   -0.000007   0.000002   0.002070  -0.000000   0.000002
   20  AS 1  Y   -0.000000   0.002066  -0.000002  -0.000000   0.002558
   21  AS 1  Z    0.000000  -0.000000  -0.000000   0.001652  -0.000000
   22  AS 1 XX    0.000316   0.000001   0.000563  -0.000000  -0.000788
   23  AS 1 YY    0.000331  -0.000001  -0.000594  -0.000000   0.000807
   24  AS 1 ZZ   -0.000647   0.000000   0.000031  -0.000000  -0.000020
   25  AS 1 XY    0.000000  -0.000737   0.000001  -0.000000   0.966677
   26  AS 1 XZ    0.000000  -0.000000  -0.000000  -0.000024   0.000000
   27  AS 1 YZ    0.000000   0.000000   0.000000  -0.000000  -0.000000
   28  AS 1 XX    0.000053  -0.000000  -0.000332   0.000000  -0.000069
   29  AS 1 YY    0.000048   0.000000   0.000341  -0.000000   0.000071
   30  AS 1 ZZ   -0.000101  -0.000000  -0.000009  -0.000000  -0.000002
   31  AS 1 XY   -0.000000   0.000375  -0.000000   0.000000   0.084638
   32  AS 1 XZ    0.000000  -0.000000  -0.000000  -0.000014   0.000000
   33  AS 1 YZ    0.000000   0.000000  -0.000000  -0.000000  -0.000000
   34  AS 1 XX   -0.000014  -0.000000  -0.000211  -0.000000  -0.000000
   35  AS 1 YY   -0.000016   0.000000   0.000215   0.000000   0.000001
   36  AS 1 ZZ    0.000031  -0.000000  -0.000004   0.000000  -0.000000
   37  AS 1 XY   -0.000000   0.000248  -0.000000   0.000000   0.000548
   38  AS 1 XZ    0.000000   0.000000   0.000000   0.000006  -0.000000
   39  AS 1 YZ   -0.000000   0.000000  -0.000000   0.000000   0.000000
   40  AS 1 XXX   0.000050   0.000000   0.000056  -0.000000  -0.000000
   41  AS 1 YYY   0.000000   0.000060  -0.000000  -0.000000  -0.000410
   42  AS 1 ZZZ   0.000000   0.000000  -0.000000  -0.000215  -0.000000
   43  AS 1 XXY   0.000000   0.000018  -0.000000  -0.000000  -0.000251
   44  AS 1 XXZ   0.000000  -0.000000  -0.000000   0.000142   0.000000
   45  AS 1 YYX  -0.000065   0.000000   0.000018   0.000000  -0.000000
   46  AS 1 YYZ   0.000000   0.000000  -0.000000   0.000147   0.000000
   47  AS 1 ZZX  -0.000001  -0.000000  -0.000094  -0.000000   0.000001
   48  AS 1 ZZY  -0.000000  -0.000098   0.000000   0.000000   0.000800
   49  AS 1 XYZ   0.000000  -0.000000   0.000000   0.000000  -0.000000
   50  H  2  S    0.000002   0.000378  -0.000217  -0.000000  -0.004868
   51  H  2  S    0.000339   0.001732  -0.001022   0.000000  -0.002292
   52  H  2  S   -0.000682  -0.000606   0.000353   0.000000  -0.001477
   53  H  2  X   -0.000002   0.000031   0.000006   0.000000  -0.000517
   54  H  2  Y    0.000004  -0.000030   0.000031   0.000000   0.001357
   55  H  2  Z   -0.000000   0.000000  -0.000000   0.000011   0.000000
   56  H  2  X    0.000006   0.000261  -0.000049   0.000000   0.000492
   57  H  2  Y   -0.000010  -0.000347   0.000272  -0.000000   0.000139
   58  H  2  Z    0.000000   0.000000   0.000000   0.000125  -0.000000
   59  H  2 XX   -0.000004  -0.000054   0.000000  -0.000000   0.000254
   60  H  2 YY    0.000027   0.000139  -0.000050   0.000000  -0.000680
   61  H  2 ZZ   -0.000023  -0.000085   0.000050  -0.000000   0.000426
   62  H  2 XY   -0.000032  -0.000156   0.000112  -0.000000   0.000624
   63  H  2 XZ   -0.000000   0.000000   0.000000  -0.000017  -0.000000
   64  H  2 YZ    0.000000  -0.000000  -0.000000   0.000030  -0.000000
   65  H  3  S    0.000002  -0.000378  -0.000217   0.000000   0.004874
   66  H  3  S    0.000339  -0.001734  -0.001019  -0.000000   0.002294
   67  H  3  S   -0.000682   0.000607   0.000352  -0.000000   0.001479
   68  H  3  X   -0.000002  -0.000031   0.000006  -0.000000   0.000519
   69  H  3  Y   -0.000004  -0.000030  -0.000031   0.000000   0.001359
   70  H  3  Z    0.000000  -0.000000   0.000000   0.000011   0.000000
   71  H  3  X    0.000006  -0.000261  -0.000048  -0.000000  -0.000490
   72  H  3  Y    0.000010  -0.000347  -0.000271  -0.000000   0.000138
   73  H  3  Z   -0.000000   0.000000  -0.000000   0.000125  -0.000000
   74  H  3 XX   -0.000004   0.000054   0.000000   0.000000  -0.000254
   75  H  3 YY    0.000027  -0.000139  -0.000050  -0.000000   0.000680
   76  H  3 ZZ   -0.000023   0.000085   0.000050   0.000000  -0.000426
   77  H  3 XY    0.000032  -0.000156  -0.000112  -0.000000   0.000625
   78  H  3 XZ    0.000000   0.000000  -0.000000  -0.000017  -0.000000
   79  H  3 YZ    0.000000   0.000000  -0.000000  -0.000030   0.000000
   80  H  4  S    0.000003   0.000000   0.000417   0.000000  -0.000005
   81  H  4  S    0.000322   0.000002   0.001954  -0.000000  -0.000003
   82  H  4  S   -0.000668  -0.000001  -0.000685   0.000000  -0.000002
   83  H  4  X    0.000013  -0.000000  -0.000016  -0.000000   0.000001
   84  H  4  Y   -0.000000   0.000024  -0.000000   0.000000   0.000430
   85  H  4  Z    0.000000  -0.000000  -0.000000   0.000011   0.000000
   86  H  4  X   -0.000010  -0.000000  -0.000498   0.000000  -0.000000
   87  H  4  Y   -0.000000   0.000108  -0.000000  -0.000000   0.001009
   88  H  4  Z    0.000000  -0.000000  -0.000000   0.000122  -0.000000
   89  H  4 XX    0.000033   0.000000   0.000203  -0.000000  -0.000001
[...]
      ---      ----        ----    --------- --------- -----
       71    0.950224   -0.950224  2+22000
      177   -0.120570    0.120570  2+20200
        6    0.119024   -0.119024  22200+0
       74   -0.103226    0.103226  2022+00
       38    0.100777   -0.100777  2202+00
       78   -0.093477    0.093477  20220+0
      248   -0.069132    0.069132  2+02200
      109    0.056306   -0.056306  +-22+00
      822   -0.052637    0.052637  2+02002
      113    0.050934   -0.050934  +-220+0
      122   -0.050733   -0.050733  +2-200+
       42   -0.042824    0.042824  22020+0
       75   -0.039961   -0.039961  -+22+00
      810    0.039478    0.039478  -++2+0-
       53   -0.036018   -0.036018  2-+200+
      332    0.032363   -0.032363  ++-2-0+
      526   -0.031701   -0.031701  ++220-0
      878   -0.029101   -0.029101  ++-2+0-
      841    0.028994   -0.028994  +2+200-
      458    0.027254   -0.027254  2+02+-0
      809   -0.027246    0.027246  20+2+0-
      323   -0.025799    0.025799  +022-+0
      320   -0.025730   -0.025730  0+22200
      264   -0.025566    0.025566  -++2-0+
      534   -0.025515   -0.025515  0+22020
      894   -0.025328   -0.025328  0+22002
      263    0.024387    0.024387  20+2-0+
      252   -0.024134   -0.024134  2+02-+0
      806    0.024062    0.024062  2++200-
      462   -0.022325    0.022325  2+02020
      529    0.022005    0.022005  +022+-0
       54    0.021740   -0.021740  -2+200+

 ---------------------------------------
      - DIABATIC STATES IN CMO -        
 ---------------------------------------

 State #    1  Energy =   -2235.921695659

      Det      Coef        Coefp    Occupancy (Ignoring core)
      ---      ----        ----    --------- --------- -----
        1   -0.976691    0.976691  222+000
      107    0.073523   -0.073523  +22-+00
      179    0.062755    0.062755  202+200
      143    0.058898    0.058898  220+200
      717    0.058751    0.058751  220+002
      393    0.057811    0.057811  202+020
      211   -0.038227   -0.038227  +22+-00
        5   -0.035296   -0.035296  -22++00
       76    0.033683    0.033683  2+2-0+0
       51    0.033262   -0.033262  22+-00+
      353   -0.032936   -0.032936  220++-0
      389    0.032857    0.032857  202++-0
      227    0.032725    0.032725  +2-+-0+
      218    0.032353   -0.032353  +-2+-+0
      704   -0.031353    0.031353  2-+++0-
      738    0.030971    0.030971  2+-++0-
      147    0.030843   -0.030843  220+-+0
      183   -0.030785    0.030785  202+-+0
      215    0.029773    0.029773  022+200
      192   -0.029167    0.029167  2+-+-0+
      158    0.028914    0.028914  2-++-0+
      705    0.028601    0.028601  -2+++0-
      390    0.028192   -0.028192  -+2++-0
      742   -0.027347   -0.027347  2+-+0+-
      368   -0.027317   -0.027317  2-++0-+
       17   -0.026254   -0.026254  22-+00+
        8   -0.026063    0.026063  2-2+0+0
      773   -0.025934    0.025934  +2-++0-
      424   -0.025542   -0.025542  +-2++-0
      159   -0.024465    0.024465  -2++-0+
      184   -0.024066   -0.024066  -+2+-+0
      357    0.023576    0.023576  220+020
      753    0.021956    0.021956  202+002
      429    0.021604    0.021604  022+020
      789    0.021537    0.021537  022+002

 State #    2  Energy =   -2235.728722662

      Det      Coef        Coefp    Occupancy (Ignoring core)
      ---      ----        ----    --------- --------- -----
        2   -0.951848    0.951848  2220+00
      106   -0.172444   -0.172444  +222000
      181   -0.083791   -0.083791  2+20-+0
      387    0.080827   -0.080827  2+20+-0
      156   -0.077804    0.077804  22+0-0+
      702    0.074539    0.074539  22+0+0-
      212    0.063998    0.063998  +220200
      720    0.060426    0.060426  2200+02
      396    0.059700    0.059700  2020+20
      110    0.057399   -0.057399  0222+00
      366    0.051220   -0.051220  22+00-+
      706   -0.050442   -0.050442  22+00+-
      751   -0.049365    0.049365  2+20002
      391    0.047234   -0.047234  2+20020
       74    0.031294   -0.031294  2022+00
       38    0.031198   -0.031198  2202+00
      186   -0.028598    0.028598  20202+0
      150    0.028487   -0.028487  22002+0
      195   -0.027523    0.027523  2+-020+
      360    0.027095    0.027095  2200+20
      745   -0.026964   -0.026964  2+-0++-
      161    0.026955    0.026955  2-+020+
      371   -0.026866   -0.026866  2-+0+-+
      756    0.025841    0.025841  2020+02
      230    0.022173    0.022173  +2-020+
      221    0.021871   -0.021871  +-202+0
      162   -0.021210    0.021210  -2+020+
      187   -0.020948   -0.020948  -+202+0

 State #    3  Energy =   -2235.691950053

      Det      Coef        Coefp    Occupancy (Ignoring core)
      ---      ----        ----    --------- --------- -----
       36    0.950731    0.950731  22+2000
      142   -0.118981   -0.118981  22+0200
       16    0.116260   -0.116260  222000+
       39    0.100806    0.100806  2-+2+00
       73   -0.100658    0.100658  2+-2+00
       52   -0.091800    0.091800  220200+
      249   -0.071055    0.071055  20+2200
      108    0.055220    0.055220  +2-2+00
      112   -0.052900   -0.052900  +2-20+0
      463   -0.051797    0.051797  20+2020
      123   -0.051481    0.051481  +-2200+
       88   -0.043125    0.043125  202200+
       40   -0.039723    0.039723  -2+2+00
      460   -0.039305   -0.039305  -++2+-0
       77    0.038393   -0.038393  2+-20+0
      288   -0.032080   -0.032080  +-+2-+0
      491    0.030168   -0.030168  +2+20-0
      876    0.029309    0.029309  ++2200-
      494    0.028706   -0.028706  +-+2+-0
      459   -0.028008    0.028008  20+2+-0
      808   -0.026640    0.026640  2+02+0-
      297   -0.025933    0.025933  +202-0+
      499   -0.025691    0.025691  02+2020
      285   -0.025499    0.025499  02+2200
      254    0.025411   -0.025411  -++2-+0
      859   -0.025410    0.025410  02+2002
      253    0.024903    0.024903  20+2-+0
      262    0.023867    0.023867  2+02-0+
      456   -0.023786   -0.023786  2++20-0
       44    0.022732   -0.022732  -2+20+0
      823   -0.022484    0.022484  20+2002
       89    0.022172    0.022172  -+2200+
      843    0.021890    0.021890  +202+0-
      812    0.020296   -0.020296  2+020+-

 State #    4  Energy =   -2235.693774874

      Det      Coef        Coefp    Occupancy (Ignoring core)
      ---      ----        ----    --------- --------- -----
       71    0.950033   -0.950033  2+22000
      177   -0.121221    0.121221  2+20200
        6    0.119020   -0.119020  22200+0
       74   -0.107169    0.107169  2022+00
       38    0.099723   -0.099723  2202+00
       78   -0.091578    0.091578  20220+0
      248   -0.067654    0.067654  2+02200
      109    0.056753   -0.056753  +-22+00
      822   -0.052657    0.052657  2+02002
      122   -0.050902   -0.050902  +2-200+
      113    0.048598   -0.048598  +-220+0
       42   -0.045562    0.045562  22020+0
      810    0.039770    0.039770  -++2+0-
       75   -0.039616   -0.039616  -+22+00
       53   -0.035827   -0.035827  2-+200+
      332    0.032334   -0.032334  ++-2-0+
      878   -0.029119   -0.029119  ++-2+0-
      841    0.028827   -0.028827  +2+200-
      526   -0.028652   -0.028652  ++220-0
      458    0.028542   -0.028542  2+02+-0
      809   -0.026554    0.026554  20+2+0-
      320   -0.025898   -0.025898  0+22200
      323   -0.025844    0.025844  +022-+0
      264   -0.025790    0.025790  -++2-0+
      894   -0.025342   -0.025342  0+22002
      252   -0.025335   -0.025335  2+02-+0
      534   -0.025319   -0.025319  0+22020
      806    0.024697    0.024697  2++200-
      462   -0.023742    0.023742  2+02020
      263    0.023635    0.023635  20+2-0+
       54    0.022076   -0.022076  -2+200+
      529    0.021782    0.021782  +022+-0
      473   -0.020245   -0.020245  20+20-+

 ---------------------------------------
    -DIABATIC STATES IN PROTOTYPES-     
 ---------------------------------------

     STATE:    1
 Group Ref#    Coefficients
     1    1    0.999073
     2    2   -0.000000
     3    3   -0.000000
     4    4    0.000000

WEIGHT OF LISTED PROTOTYPES:   99.81%

     STATE:    2
 Group Ref#    Coefficients
     1    1   -0.000000
     2    2    0.997270
     3    3   -0.000003
     4    4    0.000049

WEIGHT OF LISTED PROTOTYPES:   99.45%

     STATE:    3
 Group Ref#    Coefficients
     1    1   -0.000000
     2    2   -0.000003
     3    3    0.997793
     4    4    0.000001

WEIGHT OF LISTED PROTOTYPES:   99.56%

     STATE:    4
 Group Ref#    Coefficients
     1    1    0.000000
     2    2    0.000049
     3    3    0.000001
     4    4    0.997705

WEIGHT OF LISTED PROTOTYPES:   99.54%

     DIRECT MAX. DIABATIZATION FINISHED    
 CPU     0: STEP CPU TIME=     0.49 TOTAL CPU TIME=        193.8 (      3.2 MIN)
 TOTAL WALL CLOCK TIME=        214.6 SECONDS, CPU UTILIZATION IS    90.29%

DIABATS FOR SPIN-ORBIT CALCULATION ARE READY

TRANSITION DIPOLES BETWEEN ADIABATS (in A.U.):

STATE PAIR      X         Y         Z
    1    1  0.018984  0.000035  0.000000
    2    1 -0.000000  0.000000 -0.466506
    2    2  0.049127  0.000090  0.000000
    3    1 -0.000000 -0.000000  0.016777
    3    2 -0.174528  0.000161 -0.000000
    3    3 -0.401665 -0.000755  0.000000
    4    1 -0.000000  0.000000  0.000045
    4    2 -0.000154 -0.159014  0.000000
    4    3 -0.000794  0.417084  0.000000
    4    4  0.436208  0.000817 -0.000000


TRANSITION DIPOLES BETWEEN DIABATS (in A.U.):

STATE PAIR      X         Y         Z
    1    1  0.018984  0.000035  0.000000
    2    1  0.000000 -0.000000  0.466758
    2    2  0.056377  0.000104  0.000000
    3    1 -0.000000  0.000000 -0.000103
    3    2 -0.002699  0.167866 -0.000000
    3    3  0.435981 -0.013568 -0.000000
    4    1 -0.000000 -0.000000  0.006806
    4    2  0.164719  0.002763  0.000000
    4    3  0.013866  0.413369  0.000000
    4    4 -0.408688  0.013615  0.000000

TRANSITION DIPOLES BETWEEN DIRECT MAX. DIABATS (in A.U.):

STATE PAIR      X         Y         Z
    1    1  0.018984  0.000035  0.000000
    2    1  0.000000 -0.000000  0.466758
    2    2  0.056377  0.000104  0.000000
    3    1 -0.000000  0.000000 -0.000103
    3    2 -0.002699  0.167866 -0.000000
    3    3  0.435981 -0.013568 -0.000000
    4    1 -0.000000 -0.000000  0.006806
    4    2  0.164719  0.002763  0.000000
    4    3  0.013866  0.413369  0.000000
    4    4 -0.408688  0.013615  0.000000
 No $TRANST Group Found.
 Quit without doing spin-orbit coupling
 ..... DONE WITH MP2 ENERGY .....
 CPU     0: STEP CPU TIME=     0.01 TOTAL CPU TIME=        193.8 (      3.2 MIN)
 TOTAL WALL CLOCK TIME=        214.7 SECONDS, CPU UTILIZATION IS    90.26%
            250000000  WORDS OF DYNAMIC MEMORY USED
 EXECUTION OF GAMESS TERMINATED NORMALLY Mon Dec  4 10:32:22 2023
 DDI: 14063448 bytes (13.4 MB / 1 MWords) used by master data server.
Note: The following floating-point exceptions are signalling: IEEE_DENORMAL

 ----------------------------------------
 CPU timing information for all processes
 ========================================
 0: 193.352 + 0.451 = 193.804
 1: 192.126 + 0.404 = 192.530
 ----------------------------------------
Note: The following floating-point exceptions are signalling: IEEE_DENORMAL
 ddikick.x: exited gracefully.
unset echo
----- accounting info -----
Files used on the master node io003 were:
-rw-r--r-- 1 bjb2chen nooijen  144604 Dec  4 10:28 /home/bjb2chen/gmsscr//AsH3cat_cct_gmcpt_C1_3st_diab_mode12_+0.05x2.F05
-rw-r--r-- 1 bjb2chen nooijen 2546152 Dec  4 10:32 /home/bjb2chen/gmsscr//AsH3cat_cct_gmcpt_C1_3st_diab_mode12_+0.05x2.F09
-rw-r--r-- 1 bjb2chen nooijen 3780336 Dec  4 10:32 /home/bjb2chen/gmsscr//AsH3cat_cct_gmcpt_C1_3st_diab_mode12_+0.05x2.F09.001
-rw-r--r-- 1 bjb2chen nooijen 3010240 Dec  4 10:32 /home/bjb2chen/gmsscr//AsH3cat_cct_gmcpt_C1_3st_diab_mode12_+0.05x2.F10
-rw-r--r-- 1 bjb2chen nooijen  687296 Dec  4 10:31 /home/bjb2chen/gmsscr//AsH3cat_cct_gmcpt_C1_3st_diab_mode12_+0.05x2.F13
-rw-r--r-- 1 bjb2chen nooijen  687296 Dec  4 10:31 /home/bjb2chen/gmsscr//AsH3cat_cct_gmcpt_C1_3st_diab_mode12_+0.05x2.F13.001
-rw-r--r-- 1 bjb2chen nooijen  181872 Dec  4 10:32 /home/bjb2chen/gmsscr//AsH3cat_cct_gmcpt_C1_3st_diab_mode12_+0.05x2.F15
-rw-r--r-- 1 bjb2chen nooijen       0 Dec  4 10:28 /home/bjb2chen/gmsscr//AsH3cat_cct_gmcpt_C1_3st_diab_mode12_+0.05x2.F16
-rw-r--r-- 1 bjb2chen nooijen    9808 Dec  4 10:32 /home/bjb2chen/gmsscr//AsH3cat_cct_gmcpt_C1_3st_diab_mode12_+0.05x2.F70
-rw-r--r-- 1 bjb2chen nooijen    9808 Dec  4 10:32 /home/bjb2chen/gmsscr//AsH3cat_cct_gmcpt_C1_3st_diab_mode12_+0.05x2.F70.001
-rw-r--r-- 1 bjb2chen nooijen    9808 Dec  4 10:32 /home/bjb2chen/gmsscr//AsH3cat_cct_gmcpt_C1_3st_diab_mode12_+0.05x2.F71
-rw-r--r-- 1 bjb2chen nooijen    9808 Dec  4 10:32 /home/bjb2chen/gmsscr//AsH3cat_cct_gmcpt_C1_3st_diab_mode12_+0.05x2.F71.001
-rw-r--r-- 1 bjb2chen nooijen   19608 Dec  4 10:32 /home/bjb2chen/gmsscr//AsH3cat_cct_gmcpt_C1_3st_diab_mode12_+0.05x2.F72
-rw-r--r-- 1 bjb2chen nooijen   19608 Dec  4 10:32 /home/bjb2chen/gmsscr//AsH3cat_cct_gmcpt_C1_3st_diab_mode12_+0.05x2.F72.001
-rw-r--r-- 1 bjb2chen nooijen   19608 Dec  4 10:32 /home/bjb2chen/gmsscr//AsH3cat_cct_gmcpt_C1_3st_diab_mode12_+0.05x2.F73
-rw-r--r-- 1 bjb2chen nooijen   19608 Dec  4 10:32 /home/bjb2chen/gmsscr//AsH3cat_cct_gmcpt_C1_3st_diab_mode12_+0.05x2.F73.001
-rw-r--r-- 1 bjb2chen nooijen  961208 Dec  4 10:32 /home/bjb2chen/gmsscr//AsH3cat_cct_gmcpt_C1_3st_diab_mode12_+0.05x2.F74
-rw-r--r-- 1 bjb2chen nooijen  959640 Dec  4 10:32 /home/bjb2chen/gmsscr//AsH3cat_cct_gmcpt_C1_3st_diab_mode12_+0.05x2.F74.001
-rw-r--r-- 1 bjb2chen nooijen       0 Dec  4 10:28 /home/bjb2chen/gmsscr//AsH3cat_cct_gmcpt_C1_3st_diab_mode12_+0.05x2.F75
-rw-r--r-- 1 bjb2chen nooijen       0 Dec  4 10:28 /home/bjb2chen/gmsscr//AsH3cat_cct_gmcpt_C1_3st_diab_mode12_+0.05x2.F75.001
-rw-r--r-- 1 bjb2chen nooijen   78456 Dec  4 10:32 /home/bjb2chen/gmsscr//AsH3cat_cct_gmcpt_C1_3st_diab_mode12_+0.05x2.F76
-rw-r--r-- 1 bjb2chen nooijen   78456 Dec  4 10:32 /home/bjb2chen/gmsscr//AsH3cat_cct_gmcpt_C1_3st_diab_mode12_+0.05x2.F76.001
-rw-r--r-- 1 bjb2chen nooijen       0 Dec  4 10:28 /home/bjb2chen/gmsscr//AsH3cat_cct_gmcpt_C1_3st_diab_mode12_+0.05x2.F77
-rw-r--r-- 1 bjb2chen nooijen       0 Dec  4 10:28 /home/bjb2chen/gmsscr//AsH3cat_cct_gmcpt_C1_3st_diab_mode12_+0.05x2.F77.001
-rw-r--r-- 1 bjb2chen nooijen    6408 Dec  4 10:32 /home/bjb2chen/gmsscr//AsH3cat_cct_gmcpt_C1_3st_diab_mode12_+0.05x2.F78
-rw-r--r-- 1 bjb2chen nooijen    6408 Dec  4 10:32 /home/bjb2chen/gmsscr//AsH3cat_cct_gmcpt_C1_3st_diab_mode12_+0.05x2.F78.001
-rw-r--r-- 1 bjb2chen nooijen   49008 Dec  4 10:32 /home/bjb2chen/gmsscr//AsH3cat_cct_gmcpt_C1_3st_diab_mode12_+0.05x2.F79
-rw-r--r-- 1 bjb2chen nooijen   49008 Dec  4 10:32 /home/bjb2chen/gmsscr//AsH3cat_cct_gmcpt_C1_3st_diab_mode12_+0.05x2.F79.001
-rw-r--r-- 1 bjb2chen nooijen     168 Dec  4 10:32 /home/bjb2chen/gmsscr//AsH3cat_cct_gmcpt_C1_3st_diab_mode12_+0.05x2.F80
-rw-r--r-- 1 bjb2chen nooijen     168 Dec  4 10:32 /home/bjb2chen/gmsscr//AsH3cat_cct_gmcpt_C1_3st_diab_mode12_+0.05x2.F80.001
-rw-r--r-- 1 bjb2chen nooijen  102416 Dec  4 10:32 /home/bjb2chen/gmsscr//AsH3cat_cct_gmcpt_C1_3st_diab_mode12_+0.05x2.F81
-rw-r--r-- 1 bjb2chen nooijen  102416 Dec  4 10:32 /home/bjb2chen/gmsscr//AsH3cat_cct_gmcpt_C1_3st_diab_mode12_+0.05x2.F81.001
-rw-r--r-- 1 bjb2chen nooijen     656 Dec  4 10:32 /home/bjb2chen/gmsscr//AsH3cat_cct_gmcpt_C1_3st_diab_mode12_+0.05x2.F82
-rw-r--r-- 1 bjb2chen nooijen     656 Dec  4 10:32 /home/bjb2chen/gmsscr//AsH3cat_cct_gmcpt_C1_3st_diab_mode12_+0.05x2.F82.001
-rw-r--r-- 1 bjb2chen nooijen   19216 Dec  4 10:32 /home/bjb2chen/gmsscr//AsH3cat_cct_gmcpt_C1_3st_diab_mode12_+0.05x2.F83
-rw-r--r-- 1 bjb2chen nooijen   19216 Dec  4 10:32 /home/bjb2chen/gmsscr//AsH3cat_cct_gmcpt_C1_3st_diab_mode12_+0.05x2.F83.001
-rw-r--r-- 1 bjb2chen nooijen  327696 Dec  4 10:32 /home/bjb2chen/gmsscr//AsH3cat_cct_gmcpt_C1_3st_diab_mode12_+0.05x2.F84
-rw-r--r-- 1 bjb2chen nooijen  327696 Dec  4 10:32 /home/bjb2chen/gmsscr//AsH3cat_cct_gmcpt_C1_3st_diab_mode12_+0.05x2.F84.001
-rw-r--r-- 1 bjb2chen nooijen 2177160 Dec  4 10:32 /home/bjb2chen/gmsscr//AsH3cat_cct_gmcpt_C1_3st_diab_mode12_+0.05x2.F85
-rw-r--r-- 1 bjb2chen nooijen 2177160 Dec  4 10:32 /home/bjb2chen/gmsscr//AsH3cat_cct_gmcpt_C1_3st_diab_mode12_+0.05x2.F85.001
-rw-r--r-- 1 bjb2chen nooijen 8547872 Dec  4 10:32 /home/bjb2chen/gmsscr//AsH3cat_cct_gmcpt_C1_3st_diab_mode12_+0.05x2.F86
-rw-r--r-- 1 bjb2chen nooijen 8593440 Dec  4 10:32 /home/bjb2chen/gmsscr//AsH3cat_cct_gmcpt_C1_3st_diab_mode12_+0.05x2.F86.001
-rw-r--r-- 1 bjb2chen nooijen    1160 Dec  4 10:32 /home/bjb2chen/gmsscr//AsH3cat_cct_gmcpt_C1_3st_diab_mode12_+0.05x2.F87
-rw-r--r-- 1 bjb2chen nooijen    1160 Dec  4 10:32 /home/bjb2chen/gmsscr//AsH3cat_cct_gmcpt_C1_3st_diab_mode12_+0.05x2.F87.001
-rw-r--r-- 1 bjb2chen nooijen   22816 Dec  4 10:32 /home/bjb2chen/gmsscr//AsH3cat_cct_gmcpt_C1_3st_diab_mode12_+0.05x2.F88
-rw-r--r-- 1 bjb2chen nooijen   22816 Dec  4 10:32 /home/bjb2chen/gmsscr//AsH3cat_cct_gmcpt_C1_3st_diab_mode12_+0.05x2.F88.001
-rw-r--r-- 1 bjb2chen nooijen     648 Dec  4 10:32 /home/bjb2chen/gmsscr//AsH3cat_cct_gmcpt_C1_3st_diab_mode12_+0.05x2.F89
-rw-r--r-- 1 bjb2chen nooijen     648 Dec  4 10:32 /home/bjb2chen/gmsscr//AsH3cat_cct_gmcpt_C1_3st_diab_mode12_+0.05x2.F89.001
-rw-r--r-- 1 bjb2chen nooijen       0 Dec  4 10:28 /home/bjb2chen/gmsscr//AsH3cat_cct_gmcpt_C1_3st_diab_mode12_+0.05x2.F90
-rw-r--r-- 1 bjb2chen nooijen       0 Dec  4 10:28 /home/bjb2chen/gmsscr//AsH3cat_cct_gmcpt_C1_3st_diab_mode12_+0.05x2.F90.001
-rw-r--r-- 1 bjb2chen nooijen   13760 Dec  4 10:32 /home/bjb2chen/gmsscr//AsH3cat_cct_gmcpt_C1_3st_diab_mode12_+0.05x2.F91
-rw-r--r-- 1 bjb2chen nooijen   13760 Dec  4 10:32 /home/bjb2chen/gmsscr//AsH3cat_cct_gmcpt_C1_3st_diab_mode12_+0.05x2.F91.001
-rw-r--r-- 1 bjb2chen nooijen   22776 Dec  4 10:32 /home/bjb2chen/gmsscr//AsH3cat_cct_gmcpt_C1_3st_diab_mode12_+0.05x2.F92
-rw-r--r-- 1 bjb2chen nooijen   22776 Dec  4 10:32 /home/bjb2chen/gmsscr//AsH3cat_cct_gmcpt_C1_3st_diab_mode12_+0.05x2.F92.001
-rw-r--r-- 1 bjb2chen nooijen   23168 Dec  4 10:32 /home/bjb2chen/gmsscr//AsH3cat_cct_gmcpt_C1_3st_diab_mode12_+0.05x2.F93
-rw-r--r-- 1 bjb2chen nooijen   23168 Dec  4 10:32 /home/bjb2chen/gmsscr//AsH3cat_cct_gmcpt_C1_3st_diab_mode12_+0.05x2.F93.001
-rw-r--r-- 1 bjb2chen nooijen   22776 Dec  4 10:32 /home/bjb2chen/gmsscr//AsH3cat_cct_gmcpt_C1_3st_diab_mode12_+0.05x2.F94
-rw-r--r-- 1 bjb2chen nooijen   22776 Dec  4 10:32 /home/bjb2chen/gmsscr//AsH3cat_cct_gmcpt_C1_3st_diab_mode12_+0.05x2.F94.001
-rw-r--r-- 1 bjb2chen nooijen   13760 Dec  4 10:32 /home/bjb2chen/gmsscr//AsH3cat_cct_gmcpt_C1_3st_diab_mode12_+0.05x2.F95
-rw-r--r-- 1 bjb2chen nooijen   13760 Dec  4 10:32 /home/bjb2chen/gmsscr//AsH3cat_cct_gmcpt_C1_3st_diab_mode12_+0.05x2.F95.001
-rw-r--r-- 1 bjb2chen nooijen   39248 Dec  4 10:32 /home/bjb2chen/gmsscr//AsH3cat_cct_gmcpt_C1_3st_diab_mode12_+0.05x2.F96
-rw-r--r-- 1 bjb2chen nooijen   39248 Dec  4 10:32 /home/bjb2chen/gmsscr//AsH3cat_cct_gmcpt_C1_3st_diab_mode12_+0.05x2.F96.001
-rw-r--r-- 1 bjb2chen nooijen    1184 Dec  4 10:32 /home/bjb2chen/gmsscr//AsH3cat_cct_gmcpt_C1_3st_diab_mode12_+0.05x2.F97
-rw-r--r-- 1 bjb2chen nooijen    1184 Dec  4 10:32 /home/bjb2chen/gmsscr//AsH3cat_cct_gmcpt_C1_3st_diab_mode12_+0.05x2.F97.001
-rw-r--r-- 1 bjb2chen nooijen    9808 Dec  4 10:32 /home/bjb2chen/gmsscr//AsH3cat_cct_gmcpt_C1_3st_diab_mode12_+0.05x2.F98
-rw-r--r-- 1 bjb2chen nooijen    9808 Dec  4 10:32 /home/bjb2chen/gmsscr//AsH3cat_cct_gmcpt_C1_3st_diab_mode12_+0.05x2.F98.001
-rw-r--r-- 1 bjb2chen nooijen   30264 Dec  4 10:32 /home/bjb2chen/gmsscr//AsH3cat_cct_gmcpt_C1_3st_diab_mode12_+0.05x2.F99
-rw-r--r-- 1 bjb2chen nooijen   30264 Dec  4 10:32 /home/bjb2chen/gmsscr//AsH3cat_cct_gmcpt_C1_3st_diab_mode12_+0.05x2.F99.001
ls: No match.
ls: No match.
ls: No match.
Mon 04 Dec 2023 10:32:25 AM EST
0.308u 0.092s 3:38.27 0.1%	0+0k 288+496io 0pf+0w
