----- GAMESS execution script 'rungms' -----
This job is running on host io003
under operating system Linux at Mon 04 Dec 2023 10:28:47 AM EST
Available scratch disk space (Kbyte units) at beginning of the job is
Filesystem             1K-blocks       Used Available Use% Mounted on
helmholtz.nlogn:/home 6391504896 5230540800 838824960  87% /home
GAMESS temporary binary files will be written to /home/bjb2chen/gmsscr/
GAMESS supplementary output files will be written to /home/bjb2chen/gamess/vibronics/ash3/4state
Copying input file AsH3cat_cct_gmcpt_C1_3st_diab_mode12_-0.05x2.inp to your run's scratch directory...
cp AsH3cat_cct_gmcpt_C1_3st_diab_mode12_-0.05x2.inp /home/bjb2chen/gmsscr//AsH3cat_cct_gmcpt_C1_3st_diab_mode12_-0.05x2.F05
unset echo
 
Assuming a single but multicore node.
 
/home/bjb2chen/gamess/ddikick.x /home/bjb2chen/gamess/gamess.00.x AsH3cat_cct_gmcpt_C1_3st_diab_mode12_-0.05x2 -ddi 1 2 io003:cpus=2 -scr /home/bjb2chen/gmsscr/

 Distributed Data Interface kickoff program.
 Initiating 2 compute processes on 1 nodes to run the following command:
 /home/bjb2chen/gamess/gamess.00.x AsH3cat_cct_gmcpt_C1_3st_diab_mode12_-0.05x2 

          ******************************************************
          *         GAMESS VERSION = 02 AUG 2018 (R2)         *
          *             FROM IOWA STATE UNIVERSITY             *
          * M.W.SCHMIDT, K.K.BALDRIDGE, J.A.BOATZ, S.T.ELBERT, *
          *   M.S.GORDON, J.H.JENSEN, S.KOSEKI, N.MATSUNAGA,   *
          *          K.A.NGUYEN, S.J.SU, T.L.WINDUS,           *
          *       TOGETHER WITH M.DUPUIS, J.A.MONTGOMERY       *
          *         J.COMPUT.CHEM.  14, 1347-1363(1993)        *
          **************** 64 BIT LINUX VERSION ****************

  SINCE 1993, STUDENTS AND POSTDOCS WORKING AT IOWA STATE UNIVERSITY
  AND ALSO IN THEIR VARIOUS JOBS AFTER LEAVING ISU HAVE MADE IMPORTANT
  CONTRIBUTIONS TO THE CODE:
     IVANA ADAMOVIC, CHRISTINE AIKENS, YURI ALEXEEV, POOJA ARORA,
     ANDREY ASADCHEV, ROB BELL, PRADIPTA BANDYOPADHYAY, JONATHAN BENTZ,
     BRETT BODE, KURT BRORSEN, CALEB CARLIN, GALINA CHABAN, WEI CHEN,
     CHEOL HO CHOI, PAUL DAY, ALBERT DEFUSCO, NUWAN DESILVA, TIM DUDLEY,
     DMITRI FEDOROV, ALEX FINDLATER, GRAHAM FLETCHER, MARK FREITAG,
     KURT GLAESEMANN, ANASTASIA GUININA,
     DAN KEMP, GRANT MERRILL, NORIYUKI MINEZAWA, JONATHAN MULLIN,
     TAKESHI NAGATA, SEAN NEDD, HEATHER NETZLOFF, BOSILJKA NJEGIC, RYAN OLSON,
     MIKE PAK, BUU PHAM,
     SPENCER PRUITT, LUKE ROSKOP, JIM SHOEMAKER, LYUDMILA SLIPCHENKO,
     TONY SMITH, SAROM SOK LEANG, JIE SONG, TETSUYA TAKETSUGU, SIMON WEBB,
     PENG XU, SOOHAENG YOO, FEDERICO ZAHARIEV

  ADDITIONAL CODE HAS BEEN PROVIDED BY COLLABORATORS IN OTHER GROUPS:
     IOWA STATE UNIVERSITY:
          JOE IVANIC, AARON WEST, LAIMUTIS BYTAUTAS, KLAUS RUEDENBERG
     UNIVERSITY OF TOKYO: KIMIHIKO HIRAO, TAKAHITO NAKAJIMA,
          TAKAO TSUNEDA, MUNEAKI KAMIYA, SUSUMU YANAGISAWA,
          KIYOSHI YAGI, MAHITO CHIBA, SEIKEN TOKURA, NAOAKI KAWAKAMI
     UNIVERSITY OF AARHUS: FRANK JENSEN
     UNIVERSITY OF IOWA: VISVALDAS KAIRYS, HUI LI
     NATIONAL INST. OF STANDARDS AND TECHNOLOGY: WALT STEVENS, DAVID GARMER
     UNIVERSITY OF PISA: BENEDETTA MENNUCCI, JACOPO TOMASI
     UNIVERSITY OF MEMPHIS: HENRY KURTZ, PRAKASHAN KORAMBATH
     UNIVERSITY OF ALBERTA: TOBY ZENG, MARIUSZ KLOBUKOWSKI
     UNIVERSITY OF NEW ENGLAND: MARK SPACKMAN
     MIE UNIVERSITY: HIROAKI UMEDA
     NAT. INST. OF ADVANCED INDUSTRIAL SCIENCE AND TECHNOLOGY: KAZUO KITAURA
     MICHIGAN STATE UNIVERSITY:
          KAROL KOWALSKI, MARTA WLOCH, JEFFREY GOUR, JESSE LUTZ,
          WEI LI, JUN SHEN, J. EMILIANO DEUSTUA, PIOTR PIECUCH
     UNIVERSITY OF MINNESOTA:
          YINAN SHU
     UNIVERSITY OF SILESIA: MONIKA MUSIAL, STANISLAW KUCHARSKI
     FACULTES UNIVERSITAIRES NOTRE-DAME DE LA PAIX:
          OLIVIER QUINET, BENOIT CHAMPAGNE
     UNIVERSITY OF CALIFORNIA - SANTA BARBARA: BERNARD KIRTMAN
     INSTITUTE FOR MOLECULAR SCIENCE:
          KAZUYA ISHIMURA, MICHIO KATOUDA, AND SHIGERU NAGASE
     UNIVERSITY OF NOTRE DAME: ANNA POMOGAEVA, DAN CHIPMAN
     KYUSHU UNIVERSITY:
          HARUYUKI NAKANO,
          FENG LONG GU, JACEK KORCHOWIEC, MARCIN MAKOWSKI, AND YURIKO AOKI,
          HIROTOSHI MORI AND EISAKU MIYOSHI
     PENNSYLVANIA STATE UNIVERSITY:
          TZVETELIN IORDANOV, CHET SWALINA, JONATHAN SKONE,
          SHARON HAMMES-SCHIFFER
     WASEDA UNIVERSITY:
          MASATO KOBAYASHI, TOMOKO AKAMA, TSUGUKI TOUMA,
          TAKESHI YOSHIKAWA, YASUHIRO IKABATA, JUNJI SEINO,
          YUYA NAKAJIMA, HIROMI NAKAI
     NANJING UNIVERSITY: SHUHUA LI
     UNIVERSITY OF NEBRASKA:
          PEIFENG SU, DEJUN SI, NANDUN THELLAMUREGE, YALI WANG, HUI LI
     UNIVERSITY OF ZURICH: ROBERTO PEVERATI, KIM BALDRIDGE
     N. COPERNICUS UNIVERSITY AND JACKSON STATE UNIVERSITY:
          MARIA BARYSZ
     UNIVERSITY OF COPENHAGEN: Jimmy Kromann, CASPER STEINMANN
     TOKYO INSTITUTE OF TECHNOLOGY: HIROYA NAKATA
     NAGOYA UNIVERSITY: YOSHIO NISHIMOTO, STEPHAN IRLE
     MOSCOW STATE UNIVERSITY: VLADIMIR MIRONOV


 PARALLEL VERSION RUNNING ON        2 PROCESSORS IN        1 NODES.

 EXECUTION OF GAMESS BEGUN Mon Dec  4 10:28:48 2023

            ECHO OF THE FIRST FEW INPUT CARDS -
 INPUT CARD> !Step 4: Calculation using REFDET                                              
 INPUT CARD> $system kdiag=3 mwords=250 memddi=8000 parall=.t. $end                         
 INPUT CARD> $contrl runtyp=energy ispher=1 $end                                            
 INPUT CARD> $contrl icut=9 itol=20 inttyp=rysquad qmttol=1.0d-05 nosym=1 $end              
 INPUT CARD> $scf    npunch=2 conv=1.0d-06 dirscf=.t. diis=.t. soscf=.f. ethrsh=10.0 $end   
 INPUT CARD> $contrl scftyp=mcscf  mult=2 maxit=200 icharg=1 mplevl=2 $end                  
 INPUT CARD> $guess  guess=moread norb=85 purify=.t. $end                                   
 INPUT CARD> $basis  gbasis=cct $end                                                        
 INPUT CARD> $mcscf  cistep=gmcci fullnr=.t. finci=mos                                      
 INPUT CARD>         acurcy=1.d-6 maxit=200 $end                                            
 INPUT CARD> $trans  dirtrf=.t. $end                                                        
 INPUT CARD> $mrmp   mrpt=gmcpt rdvecs=.f. $end                                             
 INPUT CARD> $gmcpt  nmofzc=5 nmodoc=9 nmoact=7 nelact=7 stsym(1)=A                         
 INPUT CARD>         reftyp=ormas nspace=1 mstart(1)=15 mine(1)=7 maxe(1)=7                 
 INPUT CARD>         kstate(1)=1,1,1,1                                                      
 INPUT CARD>         wstate(1)=1,1,1,1                                                      
 INPUT CARD>         iwgt=0 thrwgt=-1.0 krot=.f. kszdoe=.f. knospn=.f.                      
 INPUT CARD>         thrde=-1.0 edshft=0.02 $end                                            
 INPUT CARD> $statpt hssend=.t. $end                                                        
 INPUT CARD> $end                                                                           
 INPUT CARD>--- Semi-canonical MOs --- generated at Mon Dec  4 10:21:58 2023                
 INPUT CARD> $VEC                                                                           
 INPUT CARD> 1  1 9.99999416E-01 7.29973887E-07-3.99440478E-06-4.81875831E-06 1.63484706E-05
 INPUT CARD> 1  2 5.36732169E-06-0.00000000E+00-0.00000000E+00-0.00000000E+00 4.03838885E-11
 INPUT CARD> 1  3-0.00000000E+00-0.00000000E+00 7.96211074E-11 1.14517212E-11-0.00000000E+00
 INPUT CARD> 1  4-1.40849369E-11-0.00000000E+00-0.00000000E+00-2.21867430E-11-0.00000000E+00
 INPUT CARD> 1  5-0.00000000E+00 1.08959399E-07 1.08961145E-07-2.17920544E-07-0.00000000E+00
 INPUT CARD> 1  6-0.00000000E+00-0.00000000E+00 7.02728157E-08 7.02573272E-08-1.40530143E-07
 INPUT CARD> 1  7-0.00000000E+00-0.00000000E+00-0.00000000E+00 8.61676265E-08 8.61266319E-08
 INPUT CARD> 1  8-1.72294258E-07-0.00000000E+00-0.00000000E+00-0.00000000E+00 1.61185015E-07
 INPUT CARD> 1  9-0.00000000E+00-0.00000000E+00-0.00000000E+00-0.00000000E+00-2.16246982E-07
 INPUT CARD> 1 10-0.00000000E+00-0.00000000E+00-0.00000000E+00-0.00000000E+00-2.29650252E-07
 INPUT CARD> 1 11-4.66898658E-07-1.12343498E-06-6.64097518E-08 1.15015824E-07-0.00000000E+00
 INPUT CARD> 1 12-1.90369794E-07 3.29734733E-07-0.00000000E+00 4.67684240E-08-2.10541491E-07
 INPUT CARD> 1 13 1.63773067E-07 2.57316182E-07-0.00000000E+00-0.00000000E+00-2.29652599E-07
 INPUT CARD> 1 14-4.66879487E-07-1.12342770E-06-6.64102175E-08-1.15016523E-07-0.00000000E+00
 INPUT CARD> 1 15-1.90364897E-07-3.29724918E-07-0.00000000E+00 4.67679470E-08-2.10540564E-07
 INPUT CARD> 1 16 1.63772617E-07-2.57315196E-07-0.00000000E+00-0.00000000E+00-2.29639944E-07
 INPUT CARD> 1 17-4.66987046E-07-1.12340031E-06 1.32807841E-07-0.00000000E+00-0.00000000E+00
 INPUT CARD> 1 18 3.80780830E-07-0.00000000E+00-0.00000000E+00-3.39206184E-07 1.75440103E-07
 INPUT CARD> 1 19 1.63766080E-07-0.00000000E+00-0.00000000E+00-0.00000000E+00               
 INPUT CARD> 2  1 2.72313662E-06 1.00010341E+00 1.34746909E-04 1.43214017E-04-4.26044547E-04
 INPUT CARD> 2  2-1.40486446E-04 7.10299112E-11-7.88863849E-11-0.00000000E+00-5.42197215E-11
 INPUT CARD> 2  3-1.27361486E-11-0.00000000E+00-1.68049866E-10-3.19745914E-11-0.00000000E+00
 INPUT CARD> 2  4 2.95588732E-11-0.00000000E+00-0.00000000E+00-0.00000000E+00-0.00000000E+00
 INPUT CARD> 2  5-0.00000000E+00-6.69941071E-07-6.69957164E-07 1.33989824E-06-0.00000000E+00
 INPUT CARD> 2  6-0.00000000E+00-0.00000000E+00-2.23303604E-06-2.23305293E-06 4.46608898E-06
 INPUT CARD> 2  7-0.00000000E+00-0.00000000E+00-0.00000000E+00-1.84537905E-06-1.84515653E-06
 INPUT CARD> 2  8 3.69053558E-06 1.25718203E-11-0.00000000E+00-0.00000000E+00-6.15992627E-06
 INPUT CARD> 2  9-0.00000000E+00-0.00000000E+00-0.00000000E+00-0.00000000E+00 8.26439636E-06
  250000000 WORDS OF MEMORY AVAILABLE

     BASIS OPTIONS
     -------------
     GBASIS=CCT          IGAUSS=       0      POLAR=NONE    
     NDFUNC=       0     NFFUNC=       0     DIFFSP=       F
     NPFUNC=       0      DIFFS=       F     BASNAM=        


     RUN TITLE
     ---------
 AsH3+ calculation at 4 states                                                   

 THE POINT GROUP OF THE MOLECULE IS C1      
 THE ORDER OF THE PRINCIPAL AXIS IS     0

 ATOM      ATOMIC                      COORDINATES (BOHR)
           CHARGE         X                   Y                   Z
 AS         33.0     0.0003456823        0.0000006399        0.0000000000
 H           1.0    -1.3883339348        2.4053141403       -0.0000000004
 H           1.0    -1.3883626057       -2.4053624134        0.0000000004
 H           1.0     2.7509977243        0.0000006930        0.0000000000

          INTERNUCLEAR DISTANCES (ANGS.)
          ------------------------------

                1 AS         2 H          3 H          4 H     

   1 AS      0.0000000    1.4697382 *  1.4697685 *  1.4555825 *
   2 H       1.4697382 *  0.0000000    2.5457006 *  2.5334053 *
   3 H       1.4697685 *  2.5457006 *  0.0000000    2.5334316 *
   4 H       1.4555825 *  2.5334053 *  2.5334316 *  0.0000000  

  * ... LESS THAN  3.000


     ATOMIC BASIS SET
     ----------------
 THE CONTRACTED PRIMITIVE FUNCTIONS HAVE BEEN UNNORMALIZED
 THE CONTRACTED BASIS FUNCTIONS ARE NOW NORMALIZED TO UNITY

  SHELL TYPE  PRIMITIVE        EXPONENT          CONTRACTION COEFFICIENT(S)

 AS        

      1   S       1       8482340.0000000    0.000006800003
      1   S       2       1270151.0000000    0.000052800023
      1   S       3        289057.0000000    0.000277400122
      1   S       4         81879.8500000    0.001170200514
      1   S       5         26716.5600000    0.004242101862
      1   S       6          9647.5840000    0.013655705995
      1   S       7          3764.1190000    0.039339917271
      1   S       8          1561.5660000    0.099929243872
      1   S       9           680.8147000    0.212155593142
      1   S      10           309.2412000    0.336386747683
      1   S      11           145.2574000    0.315512638518
      1   S      12            69.7390500    0.118131251863
      1   S      13            31.7703200    0.008007603516
      1   S      14            15.3917600    0.000329300145
      1   S      15             7.3415260   -0.000152300067
      1   S      16             3.3237160    0.000024700011
      1   S      17             1.4858670   -0.000036600016
      1   S      18             0.2115000   -0.000009400004

      2   S      19       8482340.0000000   -0.000002099844
      2   S      20       1270151.0000000   -0.000016498771
      2   S      21        289057.0000000   -0.000086593551
      2   S      22         81879.8500000   -0.000365272798
      2   S      23         26716.5600000   -0.001330800894
      2   S      24          9647.5840000   -0.004308979105
      2   S      25          3764.1190000   -0.012696354487
      2   S      26          1561.5660000   -0.033613496762
      2   S      27           680.8147000   -0.078941121158
      2   S      28           309.2412000   -0.151434522485
      2   S      29           145.2574000   -0.204186194004
      2   S      30            69.7390500   -0.055732549529
      2   S      31            31.7703200    0.418729516699
      2   S      32            15.3917600    0.575833316987
      2   S      33             7.3415260    0.169671564351
      2   S      34             3.3237160    0.006065748276
      2   S      35             1.4858670    0.001760368903
      2   S      36             0.2115000    0.000231582754

      3   S      37       8482340.0000000    0.000000818623
      3   S      38       1270151.0000000    0.000006548987
      3   S      39        289057.0000000    0.000034484509
      3   S      40         81879.8500000    0.000145612630
      3   S      41         26716.5600000    0.000530877249
      3   S      42          9647.5840000    0.001719313712
      3   S      43          3764.1190000    0.005083344082
      3   S      44          1561.5660000    0.013519053150
      3   S      45           680.8147000    0.032188884481
      3   S      46           309.2412000    0.063284292808
      3   S      47           145.2574000    0.090004159277
      3   S      48            69.7390500    0.026354351138
      3   S      49            31.7703200   -0.251262012099
      3   S      50            15.3917600   -0.520907644337
      3   S      51             7.3415260   -0.056868639208
      3   S      52             3.3237160    0.724870110338
      3   S      53             1.4858670    0.535280112340
      3   S      54             0.2115000   -0.011376408833

      4   S      55       8482340.0000000   -0.000000322182
      4   S      56       1270151.0000000   -0.000002899636
      4   S      57        289057.0000000   -0.000014981451
      4   S      58         81879.8500000   -0.000063147623
      4   S      59         26716.5600000   -0.000230198862
      4   S      60          9647.5840000   -0.000745689664
      4   S      61          3764.1190000   -0.002204850817
      4   S      62          1561.5660000   -0.005870151514
      4   S      63           680.8147000   -0.013996219653
      4   S      64           309.2412000   -0.027636106289
      4   S      65           145.2574000   -0.039550065282
      4   S      66            69.7390500   -0.011844045553
      4   S      67            31.7703200    0.115999445484
      4   S      68            15.3917600    0.253920137348
      4   S      69             7.3415260    0.022886825089
      4   S      70             3.3237160   -0.459365613804
      4   S      71             1.4858670   -0.625893951029
      4   S      72             0.2115000    1.046339525967

      5   S      73             0.4210860    1.000000000000

      6   S      74             0.0889740    1.000000000000

      7   P      75          7423.8610000    0.000459888095
      7   P      76          1759.5170000    0.003982196918
      7   P      77           570.2292000    0.021463244409
      7   P      78           216.5800000    0.082459565479
      7   P      79            90.7342500    0.223884404601
      7   P      80            40.3087900    0.392060251256
      7   P      81            18.5555000    0.354214630915
      7   P      82             8.3965430    0.104861385592
      7   P      83             3.7673670    0.003366312861
      7   P      84             1.6297010    0.001849452126
      7   P      85             0.2225030    0.000229694054

      8   P      86          7423.8610000   -0.000183933273
      8   P      87          1759.5170000   -0.001603623364
      8   P      88           570.2292000   -0.008714684634
      8   P      89           216.5800000   -0.034482567311
      8   P      90            90.7342500   -0.097731519242
      8   P      91            40.3087900   -0.183894927481
      8   P      92            18.5555000   -0.150374370146
      8   P      93             8.3965430    0.201569541112
      8   P      94             3.7673670    0.550783570924
      8   P      95             1.6297010    0.395483295494
      8   P      96             0.2225030   -0.005537068181

      9   P      97          7423.8610000    0.000067575484
      9   P      98          1759.5170000    0.000590735054
      9   P      99           570.2292000    0.003209920148
      9   P     100           216.5800000    0.012757201241
      9   P     101            90.7342500    0.036296841475
      9   P     102            40.3087900    0.069067055648
      9   P     103            18.5555000    0.055084858236
      9   P     104             8.3965430   -0.092951347783
      9   P     105             3.7673670   -0.256062306212
      9   P     106             1.6297010   -0.211535143443
      9   P     107             0.2225030    0.991664800915

     10   P     108             0.5682630    1.000000000000

     11   P     109             0.0804050    1.000000000000

     12   D     110           321.0196000    0.001738948853
     12   D     111            96.2493100    0.014620594557
     12   D     112            36.6449600    0.064875906626
     12   D     113            15.4939600    0.184323725081
     12   D     114             6.8911380    0.331417629149
     12   D     115             3.0548310    0.389664464481
     12   D     116             1.3142410    0.283997092847

     13   D     117             0.5134300    1.000000000000

     14   D     118             0.1877000    1.000000000000

     15   F     119             0.4158000    1.000000000000

 H         

     16   S     120            33.8700000    0.025494863235
     16   S     121             5.0950000    0.190362765893
     16   S     122             1.1590000    0.852162022245

     17   S     123             0.3258000    1.000000000000

     18   S     124             0.1027000    1.000000000000

     19   P     125             1.4070000    1.000000000000

     20   P     126             0.3880000    1.000000000000

     21   D     127             1.0570000    1.000000000000

 H         

     22   S     128            33.8700000    0.025494863235
     22   S     129             5.0950000    0.190362765893
     22   S     130             1.1590000    0.852162022245

     23   S     131             0.3258000    1.000000000000

     24   S     132             0.1027000    1.000000000000

     25   P     133             1.4070000    1.000000000000

     26   P     134             0.3880000    1.000000000000

     27   D     135             1.0570000    1.000000000000

 H         

     28   S     136            33.8700000    0.025494863235
     28   S     137             5.0950000    0.190362765893
     28   S     138             1.1590000    0.852162022245

     29   S     139             0.3258000    1.000000000000

     30   S     140             0.1027000    1.000000000000

     31   P     141             1.4070000    1.000000000000

     32   P     142             0.3880000    1.000000000000

     33   D     143             1.0570000    1.000000000000

 TOTAL NUMBER OF BASIS SET SHELLS             =   33
 NUMBER OF CARTESIAN GAUSSIAN BASIS FUNCTIONS =   94
 NOTE: THIS RUN WILL RESTRICT THE MO VARIATION SPACE TO SPHERICAL HARMONICS.
 THE NUMBER OF ORBITALS KEPT IN THE VARIATIONAL SPACE WILL BE PRINTED LATER.
 NUMBER OF ELECTRONS                          =   35
 CHARGE OF MOLECULE                           =    1
 SPIN MULTIPLICITY                            =    2
 NUMBER OF OCCUPIED ORBITALS (ALPHA)          =   18
 NUMBER OF OCCUPIED ORBITALS (BETA )          =   17
 TOTAL NUMBER OF ATOMS                        =    4
 THE NUCLEAR REPULSION ENERGY IS       36.3857501690

     $CONTRL OPTIONS
     ---------------
 SCFTYP=MCSCF        RUNTYP=ENERGY       EXETYP=RUN     
 MPLEVL=       2     CITYP =NONE         CCTYP =NONE         VBTYP =NONE    
 DFTTYP=NONE         TDDFT =NONE    
 MULT  =       2     ICHARG=       1     NZVAR =       0     COORD =UNIQUE  
 PP    =NONE         RELWFN=NONE         LOCAL =NONE         NUMGRD=       F
 ISPHER=       1     NOSYM =       1     MAXIT =     200     UNITS =ANGS    
 PLTORB=       F     MOLPLT=       F     AIMPAC=       F     FRIEND=        
 NPRINT=       7     IREST =       0     GEOM  =INPUT   
 NORMF =       0     NORMP =       0     ITOL  =      20     ICUT  =       9
 INTTYP=RYSQUAD      GRDTYP=BEST         QMTTOL= 1.0E-05

     $SYSTEM OPTIONS
     ---------------
  REPLICATED MEMORY=   250000000 WORDS (ON EVERY NODE).
 DISTRIBUTED MEMDDI=        8000 MILLION WORDS IN AGGREGATE,
 MEMDDI DISTRIBUTED OVER   2 PROCESSORS IS  4000000000 WORDS/PROCESSOR.
 TOTAL MEMORY REQUESTED ON EACH PROCESSOR=  4250000000 WORDS.
 TIMLIM=      525600.00 MINUTES, OR     365.0 DAYS.
 PARALL= T  BALTYP=  DLB     KDIAG=    3  COREFL= F
 MXSEQ2=     300 MXSEQ3=     150  mem10=         0

          ----------------
          PROPERTIES INPUT
          ----------------

     MOMENTS            FIELD           POTENTIAL          DENSITY
 IEMOM =       1   IEFLD =       0   IEPOT =       0   IEDEN =       0
 WHERE =COMASS     WHERE =NUCLEI     WHERE =NUCLEI     WHERE =NUCLEI  
 OUTPUT=BOTH       OUTPUT=BOTH       OUTPUT=BOTH       OUTPUT=BOTH    
 IEMINT=       0   IEFINT=       0                     IEDINT=       0
                                                       MORB  =       0

     -------------------------------
     INTEGRAL TRANSFORMATION OPTIONS
     -------------------------------
     NWORD  =            0
     CUTOFF = 1.0E-09     MPTRAN =       0
     DIRTRF =       T     AOINTS =DUP     

          ----------------------
          MCSCF INPUT PARAMETERS
          ----------------------
 CONVERGER SELECTION: FOCAS = F  SOSCF = F  FULLNR = T  QUD = F  JACOBI = F
 SECULAR EQUATION METHOD CISTEP = GMCCI   
 --- GENERAL INPUT OPTIONS:
 MAXIT =     200  MICIT =       1  ACURCY= 1.000E-06
 DAMP  =   0.000  CANONC=       T  ENGTOL= 1.000E-10
 EKT   =       F  NPUNCH=       2  NWORD =         0
 REGENERATE CI AFTER CONVERGENCE = NONE    
 DIABATIZATION AFTER CONVERGENCE =        F
 --- INPUT FOR FULLNR CONVERGER:
 METHOD=DM2       FORS  =       F  DROPC =       T
 LINSER=       F  FCORE =       F  NORB  =      94

          ----------------------
          INTEGRAL INPUT OPTIONS
          ----------------------
 NOPK  =       1 NORDER=       0 SCHWRZ=       T

 ------------------------------------------
 MULTIREFERENCE PERTURBATION THEORY CONTROL
 ------------------------------------------
 MRPT=GMCPT    READ CONVERGED MCSCF VECTORS= F


     ------------------------------------------
     THE POINT GROUP IS C1 , NAXIS= 1, ORDER= 1
     ------------------------------------------

 -- VARIATIONAL SPACE WILL BE RESTRICTED TO PURE SPHERICAL HARMONICS ONLY --
 AFTER EXCLUDING CONTAMINANT COMBINATIONS FROM THE CARTESIAN GAUSSIAN BASIS
 SET, THE NUMBER OF SPHERICAL HARMONICS KEPT IN THE VARIATION SPACE IS   85

     DIMENSIONS OF THE SYMMETRY SUBSPACES ARE
 A   =   85

 ..... DONE SETTING UP THE RUN .....
 CPU     0: STEP CPU TIME=     0.18 TOTAL CPU TIME=          0.2 (      0.0 MIN)
 TOTAL WALL CLOCK TIME=          0.5 SECONDS, CPU UTILIZATION IS    33.33%

          ********************
          1 ELECTRON INTEGRALS
          ********************
 TIME TO DO   DIPOLE INTEGRALS=      0.02
 ...... END OF ONE-ELECTRON INTEGRALS ......
 CPU     0: STEP CPU TIME=     0.02 TOTAL CPU TIME=          0.2 (      0.0 MIN)
 TOTAL WALL CLOCK TIME=          0.6 SECONDS, CPU UTILIZATION IS    35.09%

          -------------
          GUESS OPTIONS
          -------------
          GUESS =MOREAD            NORB  =      85          NORDER=       0
          MIX   =       F          PRTMO =       F          PUNMO =       F
          TOLZ  = 1.0E-08          TOLE  = 1.0E-05
          SYMDEN=       F          PURIFY=       T

 INITIAL GUESS ORBITALS GENERATED BY MOREAD   ROUTINE.

 STATISTICS FOR GENERATION OF SYMMETRY ORBITAL -Q- MATRIX
 NUMBER OF CARTESIAN ATOMIC ORBITALS=         94
 NUMBER OF SPHERICAL CONTAMINANTS DROPPED=     9
 NUMBER OF LINEARLY DEPENDENT MOS DROPPED=     0
 TOTAL NUMBER OF MOS IN VARIATION SPACE=      85
 ORBITAL PURIFICATION WILL OCCUR

 SYMMETRIES FOR INITIAL GUESS ORBITALS FOLLOW.   BOTH SET(S).
    18 ORBITALS ARE OCCUPIED (   14 CORE ORBITALS).
     1=A        2=A        3=A        4=A        5=A        6=A        7=A   
     8=A        9=A       10=A       11=A       12=A       13=A       14=A   
    15=A       16=A       17=A       18=A       19=A       20=A       21=A   
    22=A       23=A       24=A       25=A       26=A       27=A       28=A   
    29=A       30=A       31=A       32=A       33=A       34=A       35=A   
    36=A       37=A       38=A       39=A       40=A       41=A       42=A   
    43=A       44=A       45=A       46=A       47=A       48=A       49=A   
    50=A       51=A       52=A       53=A       54=A       55=A       56=A   
    57=A       58=A       59=A       60=A       61=A       62=A       63=A   
    64=A       65=A       66=A       67=A       68=A       69=A       70=A   
    71=A       72=A       73=A       74=A       75=A       76=A       77=A   
    78=A       79=A       80=A       81=A       82=A       83=A       84=A   
    85=A   
 ...... END OF INITIAL ORBITAL SELECTION ......
 CPU     0: STEP CPU TIME=     0.11 TOTAL CPU TIME=          0.3 (      0.0 MIN)
 TOTAL WALL CLOCK TIME=          0.7 SECONDS, CPU UTILIZATION IS    43.06%

                    ----------------------
                    AO INTEGRAL TECHNOLOGY
                    ----------------------
     S,P,L SHELL ROTATED AXIS INTEGRALS, REPROGRAMMED BY
        KAZUYA ISHIMURA (IMS) AND JOSE SIERRA (SYNSTAR).
     S,P,D,L SHELL ROTATED AXIS INTEGRALS PROGRAMMED BY
        KAZUYA ISHIMURA (INSTITUTE FOR MOLECULAR SCIENCE).
     S,P,D,F,G SHELL TO TOTAL QUARTET ANGULAR MOMENTUM SUM 5,
        ERIC PROGRAM BY GRAHAM FLETCHER (ELORET AND NASA ADVANCED
        SUPERCOMPUTING DIVISION, AMES RESEARCH CENTER).
     S,P,D,F,G,L SHELL GENERAL RYS QUADRATURE PROGRAMMED BY
        MICHEL DUPUIS (PACIFIC NORTHWEST NATIONAL LABORATORY).

          --------------------
          2 ELECTRON INTEGRALS
          --------------------

 DIRECT SCF METHOD SKIPS INTEGRAL STORAGE ON DISK.
 DIRECT TRANSFORMATION SKIPS AO INTEGRAL STORAGE ON DISK.
  ...... END OF TWO-ELECTRON INTEGRALS .....
 STEP CPU TIME =     0.03 TOTAL CPU TIME =          0.3 (      0.0 MIN)
 TOTAL WALL CLOCK TIME=          0.8 SECONDS, CPU UTILIZATION IS    45.33%
 DDI: Creating Array [0] - 8836 x 231 = 2041116 words.
 DDI: Creating Array [1] - 64 x 4851 = 310464 words.
 DDI: Creating Array [2] - 231 x 231 = 53361 words.
 DDI: Creating Array [3] - 4465 x 231 = 1031415 words.

          -----------------
          MCSCF CALCULATION
          -----------------

 ----- NUCLEAR ENERGY ----- =        36.3857501690

     -------------------------------------------------
     GMC-PT/GMC-QDPT or general MCSCF input parameters
     -------------------------------------------------
 # of frozen core orbs. =         5 ->         0
 # of doubly occ. orbs. =         9
 # of active      orbs. =         7
 # of virtual     orbs. =        64
 # of active electrons  =         7
 # of states in CI      =         4
 Highest state in CI    =         4
 kstate =  1 1 1 1
 avecoe =  0.250 0.250 0.250 0.250
 State symmetry           = A           
 Assigned symmetry number = 1

 <<<Act. MO sym.: 1111111

 <<<Division of 1-ext.:  0 0
 <<<Division of 2-ext.:  0 1

 *** Reference space

 Reference type: ORMAS (= Occupation restricted multiple active space)
 # of orbitals          =  7
 # of minimum electrons =  7
 # of maximum electrons =  7
 State symmetry    =    1 (input)
 2*Sz              =    1 (input)
 Spin multiplicity =    2 (input)
 Dimension of reference space =      1225  (from      3432 walks)

 Dimension of reference space =      1225  (from      1225 walks)

 <<<Ionized spaces for Ref-CI:
      0:         1225 /   -1-0:         1960 /  0-1-0:         2891

 EVALUATING EXCHANGE INTEGRALS FOR DIRECT INTEGRAL TRANSFORMATION
 SCHWARZ INEQUALITY OVERHEAD:      4465 INTEGRALS, T=        0.20

     --------------------------------------------
     PARTIAL TWO ELECTRON INTEGRAL TRANSFORMATION
     --------------------------------------------

 NUMBER OF CORE MOLECULAR ORBITALS     =   14
 NUMBER OF OCCUPIED MOLECULAR ORBITALS =   21
 TOTAL NUMBER OF MOLECULAR ORBITALS    =   85
 TOTAL NUMBER OF ATOMIC ORBITALS       =   94
 THRESHOLD FOR KEEPING TRANSFORMED 2E- INTEGRALS = 1.000E-09

 -------------------------------     ------------------------------
 DISTRIBUTED DATA TRANSFORMATION     PROGRAM WRITTEN BY G. FLETCHER
 -------------------------------     ------------------------------

 THE DISTRIBUTED MEMORY REQUIRED FOR THIS STEP IS MEMDDI=         4 MWORDS
 CREATING DISTRIBUTED STORAGE FOR [VIR OCC|VIR OCC] INTEGRALS
 CREATING DISTRIBUTED STORAGE FOR [VIR OCC|OCC OCC] INTEGRALS
 CREATING DISTRIBUTED STORAGE FOR [OCC OCC|OCC OCC] INTEGRALS
 CREATING DISTRIBUTED STORAGE FOR [VIR VIR|OCC OCC] INTEGRALS
 FOR    2 PROCESSORS, THE REPLICATED MEMORY NEEDED IS      615709 WORDS.
 SCHWARZ INEQUALITY OVERHEAD:      4465 INTEGRALS, T=        0.21

      DIRECT 4-INDEX TRANSFORMATION 
      SCHWARZ INEQUALITY TEST SKIPPED       1076 INTEGRAL BLOCKS
 ----- FROZEN CORE ENERGY =     -2258.5589401987
 ... END OF INTEGRAL TRANSFORMATION ...
 CPU     0: STEP CPU TIME=    10.45 TOTAL CPU TIME=         10.8 (      0.2 MIN)
 TOTAL WALL CLOCK TIME=         11.2 SECONDS, CPU UTILIZATION IS    95.91%

     --------------------------------     -----------------------------
     MCHF NEWTON-RAPHSON OPTIMIZATION     CODE WRITTEN BY MICHEL DUPUIS
     --------------------------------     -----------------------------
     PARALLEL VERSION WRITTEN BY G. FLETCHER (ELORET)
     NASA ADVANCED SUPERCOMPUTING DIVISION, AMES RESEARCH CENTER

 NUMBER OF INDEPENDENT ORBITAL ROTATION PARAMETERS =   855
 ..... DONE SOLVING NEWTON-RAPHSON EQUATIONS .....
 CPU     0: STEP CPU TIME=     0.45 TOTAL CPU TIME=         11.2 (      0.2 MIN)
 TOTAL WALL CLOCK TIME=         12.1 SECONDS, CPU UTILIZATION IS    92.74%
 ..... DONE WITH NTN-RPH ORBITAL ROTATIONS ..... 
 CPU     0: STEP CPU TIME=     0.00 TOTAL CPU TIME=         11.2 (      0.2 MIN)
 TOTAL WALL CLOCK TIME=         12.1 SECONDS, CPU UTILIZATION IS    92.74%
 MAXIMUM MEMORY USED BY NTN-RPH CODE WAS    197978 WORDS.

 ITER     TOTAL ENERGY      DEL(E)  LAGRANGIAN ASYMMETRY   SQCDF  MICIT   DAMP
   1    -2235.516911067 -0.516911067  0.001953   60   15 2.896E-05  1   0.0000
   2    -2235.516922120 -0.000011053  0.000159   60   19 8.508E-06  1   0.0000
   3    -2235.516923013 -0.000000894  0.000100   60   19 3.790E-06  1   0.0000
   4    -2235.516923388 -0.000000374  0.000064   60   19 1.767E-06  1   0.0000
   5    -2235.516923555 -0.000000167  0.000042   60   19 8.249E-07  1   0.0000
   6    -2235.516923631 -0.000000076  0.000028   60   19 3.821E-07  1   0.0000
   7    -2235.516923665 -0.000000034  0.000018   60   19 1.758E-07  1   0.0000
   8    -2235.516923681 -0.000000016  0.000012   60   19 8.052E-08  1   0.0000
   9    -2235.516923688 -0.000000007  0.000008   60   19 3.682E-08  1   0.0000
  10    -2235.516923691 -0.000000003  0.000006   60   19 1.680E-08  1   0.0000
  11    -2235.516923693 -0.000000001  0.000004   60   19 7.658E-09  1   0.0000
  12    -2235.516923694 -0.000000001  0.000003   60   19 3.494E-09  1   0.0000
  13    -2235.516923694 -0.000000000  0.000002   60   19 1.583E-09  1   0.0000
  14    -2235.516923694 -0.000000000  0.000001   60   19 7.226E-10  1   0.0000
  15    -2235.516923694 -0.000000000  0.000001   60   19 3.329E-10  1   0.0000

          --------------------
          LAGRANGIAN CONVERGED
          --------------------

 FINAL MCSCF ENERGY IS    -2235.5169236941 AFTER  15 ITERATIONS

 -MCCI- BASED ON OPTIMIZED ORBITALS
 ----------------------------------

 PLEASE NOTE: IF THE ACTIVE ORBITALS ARE CANONICALIZED BELOW,
 THE FOLLOWING CI EXPANSION COEFFICIENTS AND THE DENSITY DO NOT
 CORRESPOND TO THE PRINTED ORBITALS.  THE PRINTED EXPANSIONS MATCH
 THE ORBITALS USED DURING THE LAST ITERATION.  IF YOU WISH TO SEE
 CI EXPANSIONS BASED ON THE CANONICAL (OR NATURAL) ORBITALS, YOU
 MUST RUN A CI CALCULATION WITH THAT ORBITAL CHOICE READ IN $VEC.

 Averaged energy =   -2235.516923694

 State #    1  Energy =   -2235.693373766  S =  0.500

      Det      Coef    Occupancy (Ignoring core)
      ---      ----    --------- --------- -----
        1    0.976690  11110001110000
      107   -0.073557  11101000111000
      143    0.061298  11011001100100
      179    0.060332  10111001010100
      393    0.058910  10110101010010
      717    0.059422  11010011100001

 State #    2  Energy =   -2235.481692731  S =  0.500

      Det      Coef    Occupancy (Ignoring core)
      ---      ----    --------- --------- -----
        2    0.951333  11101001110000
      106   -0.172485  11110000111000
      110   -0.057357  01111000111000
      156    0.083112  11100011100100
      181   -0.078628  11100101010100
      212    0.064048  11101000110100
      387   -0.074715  11101001010010
      396    0.061627  10101101010010
      702    0.080764  11101001100001
      706   -0.050530  11100101100001
      720    0.061329  11001011100001

 State #    3  Energy =   -2235.447224819  S =  0.500

      Det      Coef    Occupancy (Ignoring core)
      ---      ----    --------- --------- -----
       16   -0.119219  11100011110000
       36    0.950164  11110001101000
       39    0.101554  10111001101000
       52    0.092306  11010011101000
       73    0.102261  11011001011000
      108    0.056400  11011000111000
      112   -0.050562  11010100111000
      123    0.050803  10110010111000
      142   -0.120716  11101001100100
      249    0.068965  10111001001100
      463    0.052719  10110101001010

 State #    4  Energy =   -2235.445403459  S =  0.500

      Det      Coef    Occupancy (Ignoring core)
      ---      ----    --------- --------- -----
        6   -0.115567  11100101110000
       38   -0.102693  11011001101000
       71   -0.950316  11110001011000
       74    0.101645  10111001011000
       78    0.092327  10110101011000
      109   -0.055645  10111000111000
      113   -0.051346  10110100111000
      122   -0.051063  11010010111000
      177    0.119405  11101001010100
      248    0.069710  11011001001100
      822    0.053130  11010011001001

 DENSITY MATRIX OVER ACTIVE MO-S

             1           2           3           4           5

    1    1.9718973
    2    0.0011551   1.7207068
    3   -0.0000188  -0.0000141   1.7199664
    4   -0.0000000  -0.0000000   0.0000000   1.2381520
    5    0.0032540  -0.0018031   0.0000292  -0.0000000   0.2904297
    6   -0.0013341  -0.0004539   0.0000541   0.0000000  -0.0051217
    7    0.0000235   0.0000517   0.0022269  -0.0000000   0.0000898

             6           7

    6    0.0290387
    7    0.0000159   0.0298090

 FORMING THE "STANDARD FOCK OPERATOR" IN DIRECT AO INTEGRAL MODE...
 ONLY THE   14 CORE AND   64 VIRTUAL ORBITALS WILL BE CANONICALIZED

          ----------------------
          MCSCF NATURAL ORBITALS
          ----------------------

                      1          2          3          4          5
                 -432.8954   -56.6209   -50.4654   -50.4653   -50.4653
                     A          A          A          A          A   
    1  AS 1  S    0.999999   0.000003   0.000000  -0.000000  -0.000000
    2  AS 1  S    0.000001   1.000103   0.000000  -0.000000   0.000000
    3  AS 1  S   -0.000004   0.000135   0.000000  -0.000000  -0.000006
    4  AS 1  S   -0.000005   0.000143   0.000000  -0.000000  -0.000008
    5  AS 1  S    0.000016  -0.000426   0.000000   0.000000   0.000000
    6  AS 1  S    0.000005  -0.000141   0.000000  -0.000000  -0.000002
    7  AS 1  X   -0.000000  -0.000002  -0.000000   0.000908   1.000024
    8  AS 1  Y    0.000000  -0.000000   0.000000   1.000025  -0.000908
    9  AS 1  Z    0.000000  -0.000000   1.000026  -0.000000   0.000000
   10  AS 1  X    0.000000   0.000000   0.000000  -0.000000  -0.000004
   11  AS 1  Y    0.000000   0.000000   0.000000  -0.000001   0.000000
   12  AS 1  Z    0.000000  -0.000000   0.000001  -0.000000   0.000000
   13  AS 1  X    0.000000  -0.000000   0.000000  -0.000000  -0.000093
   14  AS 1  Y    0.000000  -0.000000   0.000000  -0.000085   0.000000
   15  AS 1  Z    0.000000  -0.000000  -0.000002  -0.000000   0.000000
   16  AS 1  X    0.000000  -0.000000   0.000000  -0.000000  -0.000501
   17  AS 1  Y    0.000000  -0.000000  -0.000000  -0.000500   0.000000
   18  AS 1  Z    0.000000  -0.000000  -0.000447   0.000000  -0.000000
   19  AS 1  X    0.000000  -0.000000   0.000000  -0.000000  -0.000090
   20  AS 1  Y    0.000000  -0.000000   0.000000  -0.000090   0.000000
   21  AS 1  Z    0.000000  -0.000000  -0.000069   0.000000  -0.000000
   22  AS 1 XX    0.000000  -0.000001   0.000000   0.000000   0.000002
   23  AS 1 YY    0.000000  -0.000000   0.000000  -0.000000  -0.000002
   24  AS 1 ZZ   -0.000000   0.000001   0.000000  -0.000000  -0.000000
   25  AS 1 XY    0.000000   0.000000   0.000000  -0.000002   0.000000
   26  AS 1 XZ    0.000000  -0.000000   0.000000  -0.000000   0.000000
   27  AS 1 YZ   -0.000000  -0.000000   0.000000  -0.000000   0.000000
   28  AS 1 XX    0.000000  -0.000002   0.000000  -0.000000  -0.000058
   29  AS 1 YY    0.000000  -0.000002  -0.000000   0.000000   0.000056
   30  AS 1 ZZ   -0.000000   0.000004   0.000000   0.000000   0.000002
   31  AS 1 XY   -0.000000   0.000000  -0.000000   0.000063  -0.000000
   32  AS 1 XZ    0.000000  -0.000000  -0.000000   0.000000   0.000000
   33  AS 1 YZ    0.000000   0.000000  -0.000000  -0.000000   0.000000
   34  AS 1 XX    0.000000  -0.000002   0.000000  -0.000000  -0.000018
   35  AS 1 YY    0.000000  -0.000002  -0.000000   0.000000   0.000016
   36  AS 1 ZZ   -0.000000   0.000004   0.000000   0.000000   0.000001
   37  AS 1 XY   -0.000000   0.000000  -0.000000   0.000017  -0.000000
   38  AS 1 XZ    0.000000  -0.000000  -0.000000  -0.000000   0.000000
   39  AS 1 YZ    0.000000  -0.000000  -0.000000  -0.000000  -0.000000
   40  AS 1 XXX   0.000000  -0.000006   0.000000  -0.000000  -0.000015
   41  AS 1 YYY   0.000000  -0.000000   0.000000  -0.000013   0.000000
   42  AS 1 ZZZ   0.000000  -0.000000  -0.000000  -0.000000   0.000000
   43  AS 1 XXY   0.000000  -0.000000   0.000000  -0.000006   0.000000
   44  AS 1 XXZ   0.000000  -0.000000  -0.000000   0.000000   0.000000
   45  AS 1 YYX  -0.000000   0.000008   0.000000   0.000000  -0.000004
   46  AS 1 YYZ   0.000000  -0.000000   0.000000  -0.000000   0.000000
   47  AS 1 ZZX  -0.000000   0.000000   0.000000   0.000000   0.000024
   48  AS 1 ZZY  -0.000000   0.000000  -0.000000   0.000023  -0.000000
   49  AS 1 XYZ   0.000000   0.000000   0.000000  -0.000000   0.000000
   50  H  2  S   -0.000000   0.000006   0.000000  -0.000012   0.000007
   51  H  2  S   -0.000000   0.000011  -0.000000   0.000057  -0.000033
   52  H  2  S   -0.000001   0.000029  -0.000000   0.000040  -0.000023
   53  H  2  X   -0.000000   0.000002   0.000000   0.000007  -0.000004
   54  H  2  Y    0.000000  -0.000003  -0.000000  -0.000012   0.000007
   55  H  2  Z   -0.000000  -0.000000   0.000001   0.000000   0.000000
   56  H  2  X   -0.000000   0.000004  -0.000000   0.000029  -0.000019
   57  H  2  Y    0.000000  -0.000007   0.000000  -0.000053   0.000029
   58  H  2  Z    0.000000   0.000000  -0.000005  -0.000000   0.000000
   59  H  2 XX    0.000000  -0.000001   0.000000  -0.000002   0.000005
   60  H  2 YY   -0.000000   0.000005  -0.000000   0.000021  -0.000016
   61  H  2 ZZ    0.000000  -0.000004   0.000000  -0.000019   0.000011
   62  H  2 XY    0.000000  -0.000006   0.000000  -0.000028   0.000014
   63  H  2 XZ    0.000000  -0.000000   0.000003  -0.000000   0.000000
   64  H  2 YZ    0.000000  -0.000000  -0.000005  -0.000000   0.000000
   65  H  3  S   -0.000000   0.000006  -0.000000   0.000012   0.000007
   66  H  3  S   -0.000000   0.000011   0.000000  -0.000058  -0.000033
   67  H  3  S   -0.000001   0.000029   0.000000  -0.000040  -0.000023
   68  H  3  X   -0.000000   0.000002  -0.000000  -0.000007  -0.000004
   69  H  3  Y   -0.000000   0.000003  -0.000000  -0.000012  -0.000007
   70  H  3  Z    0.000000   0.000000   0.000001   0.000000   0.000000
   71  H  3  X   -0.000000   0.000004   0.000000  -0.000029  -0.000019
   72  H  3  Y   -0.000000   0.000007   0.000000  -0.000053  -0.000029
   73  H  3  Z   -0.000000  -0.000000  -0.000005  -0.000000   0.000000
   74  H  3 XX    0.000000  -0.000001   0.000000   0.000002   0.000005
   75  H  3 YY   -0.000000   0.000005   0.000000  -0.000021  -0.000016
   76  H  3 ZZ    0.000000  -0.000004  -0.000000   0.000019   0.000011
   77  H  3 XY   -0.000000   0.000006   0.000000  -0.000028  -0.000014
   78  H  3 XZ    0.000000  -0.000000   0.000003  -0.000000   0.000000
   79  H  3 YZ    0.000000  -0.000000   0.000005   0.000000   0.000000
   80  H  4  S   -0.000000   0.000007   0.000000  -0.000000  -0.000014
   81  H  4  S   -0.000001   0.000012   0.000000   0.000000   0.000077
   82  H  4  S   -0.000001   0.000030  -0.000000   0.000000   0.000048
   83  H  4  X    0.000000  -0.000004   0.000000  -0.000000  -0.000018
   84  H  4  Y    0.000000  -0.000000  -0.000000  -0.000000   0.000000
   85  H  4  Z    0.000000  -0.000000   0.000001   0.000000   0.000000
   86  H  4  X    0.000000  -0.000009   0.000000  -0.000000  -0.000076
   87  H  4  Y    0.000000  -0.000000   0.000000  -0.000001   0.000000
   88  H  4  Z    0.000000  -0.000000  -0.000005  -0.000000   0.000000
   89  H  4 XX   -0.000000   0.000008  -0.000000   0.000000   0.000042
   90  H  4 YY    0.000000  -0.000004   0.000000  -0.000000  -0.000020
   91  H  4 ZZ    0.000000  -0.000004   0.000000  -0.000000  -0.000022
   92  H  4 XY    0.000000  -0.000000   0.000000  -0.000004   0.000000
   93  H  4 XZ    0.000000  -0.000000  -0.000007   0.000000   0.000000
   94  H  4 YZ    0.000000  -0.000000  -0.000000  -0.000000   0.000000

                      6          7          8          9         10
                   -8.3450    -6.1998    -6.1997    -6.1964    -2.4338
                     A          A          A          A          A   
    1  AS 1  S   -0.000085  -0.000003  -0.000000  -0.000000   0.000005
    2  AS 1  S   -0.000609  -0.000023  -0.000000  -0.000000   0.000031
    3  AS 1  S    0.975257  -0.000155  -0.000000  -0.000000   0.000086
    4  AS 1  S   -0.001924  -0.000086  -0.000000  -0.000000   0.000006
    5  AS 1  S    0.036270   0.000037   0.000000   0.000000  -0.000121
    6  AS 1  S    0.004132   0.000022   0.000000  -0.000000  -0.000079
    7  AS 1  X   -0.000002  -0.000105  -0.000000  -0.000000   0.000213
    8  AS 1  Y   -0.000000   0.000000  -0.000106   0.000000  -0.000000
    9  AS 1  Z    0.000000   0.000000  -0.000000   0.000031  -0.000000
   10  AS 1  X    0.000058   0.974398   0.000872   0.000000   0.000974
   11  AS 1  Y    0.000000  -0.000872   0.974388  -0.000000  -0.000001
   12  AS 1  Z    0.000000  -0.000000   0.000000   0.975679  -0.000000
   13  AS 1  X   -0.000018  -0.000992  -0.000001  -0.000000   0.004661
   14  AS 1  Y   -0.000000   0.000001  -0.001007   0.000000  -0.000004
   15  AS 1  Z    0.000000   0.000000  -0.000000   0.000431   0.000000
   16  AS 1  X    0.000014   0.047780   0.000043   0.000000  -0.001841
   17  AS 1  Y    0.000000  -0.000043   0.047810  -0.000000   0.000002
   18  AS 1  Z    0.000000  -0.000000   0.000000   0.046644  -0.000000
   19  AS 1  X    0.000007   0.002066   0.000002   0.000000  -0.002558
   20  AS 1  Y    0.000000  -0.000002   0.002070   0.000000   0.000002
   21  AS 1  Z    0.000000   0.000000   0.000000   0.001652  -0.000000
   22  AS 1 XX    0.000331   0.000652   0.000001  -0.000000   0.840663
   23  AS 1 YY    0.000316  -0.000622  -0.000000  -0.000000  -0.833625
   24  AS 1 ZZ   -0.000647  -0.000030  -0.000000  -0.000000  -0.007038
   25  AS 1 XY   -0.000000   0.000001  -0.000669   0.000000   0.000871
   26  AS 1 XZ    0.000000   0.000000   0.000000   0.000023   0.000000
   27  AS 1 YZ    0.000000  -0.000000  -0.000000   0.000000  -0.000000
   28  AS 1 XX    0.000048  -0.000330  -0.000000  -0.000000   0.073610
   29  AS 1 YY    0.000053   0.000321   0.000000   0.000000  -0.072984
   30  AS 1 ZZ   -0.000101   0.000009   0.000000   0.000000  -0.000626
   31  AS 1 XY    0.000000  -0.000000   0.000389  -0.000000   0.000076
   32  AS 1 XZ    0.000000   0.000000  -0.000000   0.000014  -0.000000
   33  AS 1 YZ   -0.000000   0.000000  -0.000000   0.000000  -0.000000
   34  AS 1 XX   -0.000016  -0.000217  -0.000000   0.000000   0.000494
   35  AS 1 YY   -0.000014   0.000213   0.000000  -0.000000  -0.000456
   36  AS 1 ZZ    0.000031   0.000004   0.000000   0.000000  -0.000038
   37  AS 1 XY    0.000000  -0.000000   0.000247  -0.000000   0.000000
   38  AS 1 XZ    0.000000  -0.000000  -0.000000  -0.000006  -0.000000
   39  AS 1 YZ    0.000000  -0.000000  -0.000000  -0.000000   0.000000
   40  AS 1 XXX   0.000048   0.000051   0.000000  -0.000000   0.000495
   41  AS 1 YYY  -0.000000  -0.000000   0.000047   0.000000  -0.000001
   42  AS 1 ZZZ   0.000000   0.000000   0.000000  -0.000215  -0.000000
   43  AS 1 XXY  -0.000000  -0.000000   0.000030   0.000000  -0.000000
   44  AS 1 XXZ   0.000000   0.000000   0.000000   0.000147  -0.000000
   45  AS 1 YYX  -0.000066   0.000029   0.000000  -0.000000   0.000136
   46  AS 1 YYZ   0.000000  -0.000000  -0.000000   0.000142   0.000000
   47  AS 1 ZZX   0.000001  -0.000098  -0.000000   0.000000  -0.000800
   48  AS 1 ZZY   0.000000   0.000000  -0.000094  -0.000000   0.000001
   49  AS 1 XYZ   0.000000  -0.000000   0.000000  -0.000000  -0.000000
   50  H  2  S    0.000002  -0.000213   0.000366   0.000000  -0.002726
   51  H  2  S    0.000328  -0.000973   0.001716  -0.000000  -0.001380
   52  H  2  S   -0.000672   0.000344  -0.000599  -0.000000  -0.000851
   53  H  2  X   -0.000005   0.000012   0.000022  -0.000000  -0.000724
   54  H  2  Y    0.000009   0.000022  -0.000014  -0.000000   0.000492
   55  H  2  Z    0.000000   0.000000   0.000000   0.000011  -0.000000
   56  H  2  X    0.000005  -0.000041   0.000266  -0.000000  -0.000728
   57  H  2  Y   -0.000009   0.000256  -0.000351   0.000000  -0.000475
   58  H  2  Z   -0.000000   0.000000   0.000000   0.000123  -0.000000
   59  H  2 XX   -0.000004  -0.000002  -0.000050   0.000000  -0.000118
   60  H  2 YY    0.000023  -0.000041   0.000125  -0.000000  -0.000115
   61  H  2 ZZ   -0.000020   0.000043  -0.000075   0.000000   0.000233
   62  H  2 XY   -0.000026   0.000101  -0.000141   0.000000   0.000520
   63  H  2 XZ    0.000000  -0.000000   0.000000  -0.000018  -0.000000
   64  H  2 YZ   -0.000000   0.000000   0.000000   0.000031   0.000000
   65  H  3  S    0.000002  -0.000212  -0.000366  -0.000000  -0.002717
   66  H  3  S    0.000328  -0.000970  -0.001718   0.000000  -0.001376
   67  H  3  S   -0.000672   0.000343   0.000599   0.000000  -0.000848
   68  H  3  X   -0.000005   0.000012  -0.000022   0.000000  -0.000723
   69  H  3  Y   -0.000009  -0.000022  -0.000014  -0.000000  -0.000490
   70  H  3  Z    0.000000   0.000000   0.000000   0.000011  -0.000000
   71  H  3  X    0.000005  -0.000041  -0.000267   0.000000  -0.000729
   72  H  3  Y    0.000009  -0.000255  -0.000352   0.000000   0.000475
   73  H  3  Z    0.000000  -0.000000   0.000000   0.000123   0.000000
   74  H  3 XX   -0.000004  -0.000002   0.000050  -0.000000  -0.000119
   75  H  3 YY    0.000023  -0.000041  -0.000125   0.000000  -0.000114
   76  H  3 ZZ   -0.000020   0.000042   0.000075  -0.000000   0.000232
   77  H  3 XY    0.000026  -0.000101  -0.000141   0.000000  -0.000519
   78  H  3 XZ   -0.000000   0.000000  -0.000000  -0.000018   0.000000
   79  H  3 YZ   -0.000000   0.000000  -0.000000  -0.000031  -0.000000
   80  H  4  S    0.000001   0.000443   0.000000  -0.000000   0.005719
   81  H  4  S    0.000344   0.002030   0.000002   0.000000   0.002592
   82  H  4  S   -0.000687  -0.000707  -0.000001  -0.000000   0.001711
   83  H  4  X    0.000001  -0.000059  -0.000000  -0.000000  -0.001700
   84  H  4  Y    0.000000  -0.000000   0.000025  -0.000000   0.000000
   85  H  4  Z    0.000000   0.000000   0.000000   0.000011  -0.000000
   86  H  4  X   -0.000012  -0.000504  -0.000000  -0.000000   0.000171
   87  H  4  Y    0.000000  -0.000000   0.000107   0.000000   0.000001
   88  H  4  Z    0.000000  -0.000000  -0.000000   0.000125  -0.000000
   89  H  4 XX    0.000047   0.000253   0.000000   0.000000   0.001080
   90  H  4 YY   -0.000022  -0.000149  -0.000000  -0.000000  -0.000574
   91  H  4 ZZ   -0.000025  -0.000105  -0.000000  -0.000000  -0.000506
   92  H  4 XY    0.000000  -0.000000   0.000036   0.000000  -0.000000
   93  H  4 XZ    0.000000   0.000000   0.000000   0.000034  -0.000000
   94  H  4 YZ   -0.000000   0.000000   0.000000   0.000000  -0.000000

                     11         12         13         14         15
                   -2.4337    -2.4296    -2.4287    -2.4287     1.9719
                     A          A          A          A          A   
    1  AS 1  S   -0.000000  -0.000097   0.000000  -0.000000   0.000443
    2  AS 1  S   -0.000000  -0.000645   0.000000  -0.000000   0.002661
    3  AS 1  S   -0.000000  -0.001511   0.000000  -0.000000   0.004354
    4  AS 1  S   -0.000000  -0.003265   0.000000  -0.000000   0.556845
    5  AS 1  S    0.000000   0.000601  -0.000000   0.000000   0.235462
    6  AS 1  S    0.000000   0.003475   0.000000   0.000000   0.130882
    7  AS 1  X   -0.000000  -0.000002  -0.000000  -0.000000  -0.000073
    8  AS 1  Y   -0.000220  -0.000000   0.000000  -0.000000  -0.000000
    9  AS 1  Z    0.000000   0.000000  -0.000000  -0.000005  -0.000000
   10  AS 1  X   -0.000001   0.000014  -0.000000  -0.000000  -0.000936
   11  AS 1  Y   -0.001135   0.000000   0.000000  -0.000000  -0.000002
   12  AS 1  Z    0.000000   0.000000  -0.000000  -0.000077  -0.000000
   13  AS 1  X   -0.000004  -0.000061  -0.000000  -0.000000   0.001075
   14  AS 1  Y   -0.004669  -0.000000   0.000000  -0.000000   0.000002
   15  AS 1  Z    0.000000   0.000000   0.000000   0.000002   0.000000
   16  AS 1  X    0.000002  -0.000010   0.000000   0.000000   0.001091
   17  AS 1  Y    0.001941  -0.000000  -0.000000   0.000000   0.000002
   18  AS 1  Z   -0.000000   0.000000   0.000000   0.000081   0.000000
   19  AS 1  X    0.000002  -0.000020  -0.000000  -0.000000  -0.000059
   20  AS 1  Y    0.002565  -0.000000   0.000000  -0.000000  -0.000000
   21  AS 1  Z    0.000000   0.000000   0.000000   0.000020   0.000000
   22  AS 1 XX   -0.000764  -0.477896   0.000000  -0.000000  -0.014768
   23  AS 1 YY    0.000745  -0.490168   0.000000  -0.000000  -0.013865
   24  AS 1 ZZ    0.000019   0.968064  -0.000000   0.000000   0.028632
   25  AS 1 XY    0.966708  -0.000013   0.000000  -0.000000   0.000001
   26  AS 1 XZ    0.000000  -0.000000   0.000780   0.968370   0.000000
   27  AS 1 YZ   -0.000000   0.000000   0.968387  -0.000780   0.000000
   28  AS 1 XX   -0.000067  -0.040604   0.000000  -0.000000   0.008758
   29  AS 1 YY    0.000065  -0.041616   0.000000  -0.000000   0.008155
   30  AS 1 ZZ    0.000002   0.082220  -0.000000   0.000000  -0.016913
   31  AS 1 XY    0.084641  -0.000001  -0.000000   0.000000  -0.000001
   32  AS 1 XZ    0.000000  -0.000000   0.000066   0.082225   0.000000
   33  AS 1 YZ   -0.000000   0.000000   0.082200  -0.000066   0.000000
   34  AS 1 XX   -0.000000  -0.000715  -0.000000  -0.000000   0.004363
   35  AS 1 YY    0.000000  -0.000630   0.000000   0.000000   0.004372
   36  AS 1 ZZ    0.000000   0.001344  -0.000000   0.000000  -0.008735
   37  AS 1 XY    0.000496   0.000000  -0.000000   0.000000   0.000000
   38  AS 1 XZ    0.000000   0.000000   0.000001   0.000964   0.000000
   39  AS 1 YZ   -0.000000  -0.000000   0.000960  -0.000001  -0.000000
   40  AS 1 XXX  -0.000001  -0.001037   0.000000  -0.000000   0.013539
   41  AS 1 YYY  -0.000471  -0.000000   0.000000  -0.000000   0.000000
   42  AS 1 ZZZ   0.000000   0.000000  -0.000000  -0.000018   0.000000
   43  AS 1 XXY  -0.000144  -0.000000   0.000000  -0.000000   0.000000
   44  AS 1 XXZ   0.000000  -0.000000   0.000000   0.000269   0.000000
   45  AS 1 YYX   0.000000   0.001354  -0.000000   0.000000  -0.018040
   46  AS 1 YYZ  -0.000000   0.000000  -0.000000  -0.000245   0.000000
   47  AS 1 ZZX   0.000001   0.000037   0.000000   0.000000  -0.000125
   48  AS 1 ZZY   0.000776   0.000000  -0.000000   0.000000  -0.000000
   49  AS 1 XYZ   0.000000   0.000000  -0.000249   0.000000  -0.000000
   50  H  2  S   -0.004716  -0.002781   0.000000  -0.000000   0.073780
   51  H  2  S   -0.002319  -0.000947  -0.000000   0.000000   0.106868
   52  H  2  S   -0.001495  -0.000365  -0.000000   0.000000   0.010145
   53  H  2  X   -0.000492  -0.000437  -0.000000  -0.000000   0.003454
   54  H  2  Y    0.001292   0.000754   0.000000   0.000000  -0.005975
   55  H  2  Z   -0.000000  -0.000000   0.000374  -0.000216  -0.000000
   56  H  2  X    0.000504   0.000046  -0.000000   0.000000   0.006352
   57  H  2  Y    0.000167  -0.000100   0.000000  -0.000000  -0.010924
   58  H  2  Z    0.000000   0.000000   0.000994  -0.000567  -0.000000
   59  H  2 XX    0.000251  -0.000017   0.000000  -0.000000   0.000028
   60  H  2 YY   -0.000660  -0.000380  -0.000000   0.000000   0.001539
   61  H  2 ZZ    0.000409   0.000397   0.000000  -0.000000  -0.001567
   62  H  2 XY    0.000596   0.000366   0.000000  -0.000000  -0.001542
   63  H  2 XZ    0.000000  -0.000000   0.000221  -0.000024   0.000000
   64  H  2 YZ   -0.000000   0.000000  -0.000283   0.000221   0.000000
   65  H  3  S    0.004720  -0.002781   0.000000  -0.000000   0.073776
   66  H  3  S    0.002322  -0.000947  -0.000000  -0.000000   0.106863
   67  H  3  S    0.001497  -0.000365  -0.000000  -0.000000   0.010145
   68  H  3  X    0.000493  -0.000437  -0.000000  -0.000000   0.003454
   69  H  3  Y    0.001293  -0.000754  -0.000000   0.000000   0.005975
   70  H  3  Z   -0.000000   0.000000  -0.000374  -0.000215   0.000000
   71  H  3  X   -0.000503   0.000046  -0.000000  -0.000000   0.006351
   72  H  3  Y    0.000166   0.000100  -0.000000  -0.000000   0.010924
   73  H  3  Z   -0.000000  -0.000000  -0.000995  -0.000566   0.000000
   74  H  3 XX   -0.000251  -0.000017   0.000000   0.000000   0.000028
   75  H  3 YY    0.000660  -0.000380  -0.000000  -0.000000   0.001539
   76  H  3 ZZ   -0.000410   0.000397   0.000000   0.000000  -0.001567
   77  H  3 XY    0.000596  -0.000366  -0.000000  -0.000000   0.001542
   78  H  3 XZ   -0.000000   0.000000  -0.000221  -0.000024  -0.000000
   79  H  3 YZ   -0.000000   0.000000  -0.000283  -0.000220   0.000000
   80  H  4  S   -0.000005  -0.002876   0.000000  -0.000000   0.076034
   81  H  4  S   -0.000002  -0.000802   0.000000   0.000000   0.109092
   82  H  4  S   -0.000002  -0.000335   0.000000   0.000000   0.010114
   83  H  4  X    0.000002   0.000922   0.000000   0.000000  -0.007161
   84  H  4  Y    0.000471  -0.000000   0.000000   0.000000   0.000000
   85  H  4  Z   -0.000000  -0.000000   0.000000   0.000469   0.000000
   86  H  4  X   -0.000000  -0.000168  -0.000000  -0.000000  -0.012904
   87  H  4  Y    0.001019  -0.000000   0.000000  -0.000000   0.000000
   88  H  4  Z    0.000000  -0.000000   0.000001   0.001152   0.000000
   89  H  4 XX   -0.000001  -0.000584   0.000000   0.000000   0.002412
   90  H  4 YY    0.000001   0.000173  -0.000000  -0.000000  -0.000786
   91  H  4 ZZ    0.000000   0.000411   0.000000  -0.000000  -0.001626
   92  H  4 XY   -0.000328   0.000000   0.000000   0.000000  -0.000000
   93  H  4 XZ    0.000000   0.000000  -0.000000  -0.000443   0.000000
   94  H  4 YZ    0.000000   0.000000   0.000105  -0.000000   0.000000

                     16         17         18         19         20
                    1.7207     1.7200     1.2382     0.2905     0.0298
                     A          A          A          A          A   
    1  AS 1  S   -0.000030  -0.000000  -0.000000   0.001257   0.000001
    2  AS 1  S   -0.000208  -0.000001   0.000000   0.009552   0.000006
    3  AS 1  S   -0.000835  -0.000002  -0.000000   0.063180   0.000027
    4  AS 1  S   -0.003437  -0.000010  -0.000000   0.491135   0.000068
    5  AS 1  S   -0.001104  -0.000003  -0.000000   0.249828   0.000028
    6  AS 1  S   -0.003279  -0.000009  -0.000000   0.660932  -0.000001
    7  AS 1  X   -0.004058  -0.000004  -0.000000  -0.000030   0.000012
    8  AS 1  Y    0.000004  -0.003945   0.000000  -0.000000   0.013967
    9  AS 1  Z   -0.000000  -0.000000  -0.000249   0.000000   0.000000
   10  AS 1  X   -0.053977  -0.000052  -0.000000  -0.000674   0.000160
   11  AS 1  Y    0.000053  -0.052608   0.000000  -0.000001   0.188850
   12  AS 1  Z   -0.000000  -0.000000  -0.001193   0.000000   0.000000
   13  AS 1  X    0.363637   0.000358  -0.000000  -0.014252   0.000828
   14  AS 1  Y   -0.000357   0.364727   0.000000  -0.000027   0.973593
   15  AS 1  Z   -0.000000  -0.000000   0.613176   0.000000   0.000000
   16  AS 1  X    0.167424   0.000164   0.000000  -0.005359   0.000224
   17  AS 1  Y   -0.000164   0.166765  -0.000000  -0.000010   0.263239
   18  AS 1  Z   -0.000000   0.000000   0.226753   0.000000  -0.000000
   19  AS 1  X    0.065284   0.000065  -0.000000  -0.009895   0.000181
   20  AS 1  Y   -0.000064   0.066579   0.000000  -0.000019   0.212426
   21  AS 1  Z   -0.000000   0.000000   0.294909   0.000000  -0.000000
   22  AS 1 XX   -0.054326  -0.000053  -0.000000   0.056414   0.000094
   23  AS 1 YY    0.053893   0.000052  -0.000000   0.059370  -0.000082
   24  AS 1 ZZ    0.000433   0.000001  -0.000000  -0.115784  -0.000011
   25  AS 1 XY   -0.000061   0.061421  -0.000000   0.000003  -0.119427
   26  AS 1 XZ    0.000000  -0.000000  -0.000147  -0.000000   0.000000
   27  AS 1 YZ   -0.000000   0.000000  -0.000000  -0.000000   0.000000
   28  AS 1 XX    0.028664   0.000028  -0.000000  -0.046921  -0.000055
   29  AS 1 YY   -0.028440  -0.000027   0.000000  -0.048875   0.000048
   30  AS 1 ZZ   -0.000224  -0.000001  -0.000000   0.095796   0.000007
   31  AS 1 XY    0.000032  -0.032446  -0.000000  -0.000002   0.070130
   32  AS 1 XZ   -0.000000   0.000000   0.000014   0.000000  -0.000000
   33  AS 1 YZ   -0.000000  -0.000000   0.000000  -0.000000  -0.000000
   34  AS 1 XX    0.021310   0.000021  -0.000000  -0.089774   0.000032
   35  AS 1 YY   -0.021207  -0.000021   0.000000  -0.095173  -0.000036
   36  AS 1 ZZ   -0.000103  -0.000000  -0.000000   0.184947   0.000004
   37  AS 1 XY    0.000024  -0.024451  -0.000000  -0.000006  -0.046254
   38  AS 1 XZ   -0.000000   0.000000  -0.000193  -0.000000   0.000000
   39  AS 1 YZ    0.000000  -0.000000  -0.000000   0.000000  -0.000000
   40  AS 1 XXX   0.008026   0.000008  -0.000000  -0.043746  -0.000010
   41  AS 1 YYY  -0.000008   0.007836   0.000000   0.000001  -0.006200
   42  AS 1 ZZZ  -0.000000   0.000000  -0.014268   0.000000   0.000000
   43  AS 1 XXY  -0.000003   0.003420   0.000000   0.000000  -0.003202
   44  AS 1 XXZ  -0.000000   0.000000   0.009569   0.000000   0.000000
   45  AS 1 YYX   0.003284   0.000003  -0.000000   0.059171   0.000004
   46  AS 1 YYZ  -0.000000  -0.000000   0.009572  -0.000000  -0.000000
   47  AS 1 ZZX  -0.014052  -0.000014   0.000000  -0.000480   0.000010
   48  AS 1 ZZY   0.000014  -0.013934  -0.000000  -0.000001   0.011520
   49  AS 1 XYZ   0.000000  -0.000000  -0.000000  -0.000000   0.000000
   50  H  2  S   -0.081433   0.140108  -0.000000  -0.140956  -0.229456
   51  H  2  S   -0.143147   0.246266  -0.000000  -0.330436  -0.657462
   52  H  2  S   -0.040424   0.070433  -0.000000  -0.307602  -0.062151
   53  H  2  X   -0.001445   0.005760   0.000000   0.000481  -0.001519
   54  H  2  Y    0.005816  -0.008055  -0.000000  -0.001134   0.009565
   55  H  2  Z    0.000000  -0.000000   0.004479   0.000000   0.000000
   56  H  2  X   -0.002700   0.014265  -0.000000  -0.000923  -0.041030
   57  H  2  Y    0.014426  -0.018974   0.000000   0.000435   0.107827
   58  H  2  Z    0.000000   0.000000   0.023082  -0.000000  -0.000000
   59  H  2 XX    0.001438   0.000205  -0.000000  -0.000528   0.002709
   60  H  2 YY   -0.002561   0.001728  -0.000000   0.000067  -0.009497
   61  H  2 ZZ    0.001123  -0.001932   0.000000   0.000461   0.006787
   62  H  2 XY    0.000893  -0.003293   0.000000  -0.000436   0.006178
   63  H  2 XZ   -0.000000  -0.000000   0.001323   0.000000  -0.000000
   64  H  2 YZ   -0.000000  -0.000000  -0.002294  -0.000000  -0.000000
   65  H  3  S   -0.081156  -0.140266   0.000000  -0.140967   0.229644
   66  H  3  S   -0.142663  -0.246549   0.000000  -0.330468   0.658031
   67  H  3  S   -0.040287  -0.070513   0.000000  -0.307637   0.062230
   68  H  3  X   -0.001433  -0.005762  -0.000000   0.000481   0.001531
   69  H  3  Y   -0.005799  -0.008066  -0.000000   0.001134   0.009564
   70  H  3  Z   -0.000000  -0.000000   0.004478  -0.000000   0.000000
   71  H  3  X   -0.002672  -0.014271   0.000000  -0.000922   0.041128
   72  H  3  Y   -0.014389  -0.019003   0.000000  -0.000436   0.107885
   73  H  3  Z   -0.000000   0.000000   0.023082   0.000000  -0.000000
   74  H  3 XX    0.001439  -0.000202  -0.000000  -0.000528  -0.002703
   75  H  3 YY   -0.002557  -0.001733   0.000000   0.000067   0.009496
   76  H  3 ZZ    0.001119   0.001935  -0.000000   0.000461  -0.006792
   77  H  3 XY   -0.000887  -0.003295   0.000000   0.000436   0.006190
   78  H  3 XZ    0.000000  -0.000000   0.001323   0.000000  -0.000000
   79  H  3 YZ   -0.000000  -0.000000   0.002294   0.000000   0.000000
   80  H  4  S    0.163092   0.000160  -0.000000  -0.136042  -0.000244
   81  H  4  S    0.284066   0.000278   0.000000  -0.316148  -0.000684
   82  H  4  S    0.080676   0.000080   0.000000  -0.292092  -0.000052
   83  H  4  X   -0.011574  -0.000011  -0.000000  -0.001060   0.000010
   84  H  4  Y   -0.000002   0.002014   0.000000  -0.000000   0.007318
   85  H  4  Z   -0.000000   0.000000   0.004623   0.000000  -0.000000
   86  H  4  X   -0.027018  -0.000026  -0.000000   0.000256   0.000118
   87  H  4  Y   -0.000006   0.005792   0.000000  -0.000001   0.038423
   88  H  4  Z   -0.000000   0.000000   0.023263   0.000000  -0.000000
   89  H  4 XX    0.004401   0.000004  -0.000000   0.000118  -0.000012
   90  H  4 YY   -0.002184  -0.000002  -0.000000  -0.000661   0.000004
   91  H  4 ZZ   -0.002217  -0.000002  -0.000000   0.000543   0.000007
   92  H  4 XY    0.000002  -0.001860   0.000000   0.000000  -0.006148
   93  H  4 XZ   -0.000000   0.000000  -0.002674   0.000000  -0.000000
   94  H  4 YZ   -0.000000  -0.000000  -0.000000   0.000000  -0.000000

                     21
                    0.0289
                     A   
    1  AS 1  S    0.000319
    2  AS 1  S    0.002222
    3  AS 1  S    0.009872
    4  AS 1  S    0.024957
    5  AS 1  S    0.010378
    6  AS 1  S   -0.000734
    7  AS 1  X    0.014514
    8  AS 1  Y   -0.000012
    9  AS 1  Z    0.000000
   10  AS 1  X    0.195680
   11  AS 1  Y   -0.000167
   12  AS 1  Z   -0.000000
   13  AS 1  X    0.986912
   14  AS 1  Y   -0.000842
   15  AS 1  Z    0.000000
   16  AS 1  X    0.264523
   17  AS 1  Y   -0.000226
   18  AS 1  Z    0.000000
   19  AS 1  X    0.210493
   20  AS 1  Y   -0.000179
   21  AS 1  Z   -0.000000
   22  AS 1 XX    0.107010
   23  AS 1 YY   -0.103017
   24  AS 1 ZZ   -0.003993
   25  AS 1 XY    0.000103
   26  AS 1 XZ    0.000000
   27  AS 1 YZ    0.000000
   28  AS 1 XX   -0.061705
   29  AS 1 YY    0.059069
   30  AS 1 ZZ    0.002635
   31  AS 1 XY   -0.000059
   32  AS 1 XZ   -0.000000
   33  AS 1 YZ    0.000000
   34  AS 1 XX    0.042240
   35  AS 1 YY   -0.043478
   36  AS 1 ZZ    0.001238
   37  AS 1 XY    0.000042
   38  AS 1 XZ   -0.000000
   39  AS 1 YZ   -0.000000
   40  AS 1 XXX  -0.007758
   41  AS 1 YYY   0.000004
   42  AS 1 ZZZ   0.000000
   43  AS 1 XXY   0.000003
   44  AS 1 XXZ   0.000000
   45  AS 1 YYX  -0.000409
   46  AS 1 YYZ  -0.000000
   47  AS 1 ZZX   0.010817
   48  AS 1 ZZY  -0.000009
   49  AS 1 XYZ   0.000000
   50  H  2  S    0.127426
   51  H  2  S    0.371203
   52  H  2  S    0.037272
   53  H  2  X    0.007873
   54  H  2  Y   -0.001267
   55  H  2  Z   -0.000000
   56  H  2  X    0.061648
   57  H  2  Y   -0.040291
   58  H  2  Z    0.000000
   59  H  2 XX    0.003658
   60  H  2 YY    0.000123
   61  H  2 ZZ   -0.003781
   62  H  2 XY   -0.007161
   63  H  2 XZ    0.000000
   64  H  2 YZ    0.000000
   65  H  3  S    0.127030
   66  H  3  S    0.370066
   67  H  3  S    0.037172
   68  H  3  X    0.007870
   69  H  3  Y    0.001250
   70  H  3  Z    0.000000
   71  H  3  X    0.061573
   72  H  3  Y    0.040102
   73  H  3  Z   -0.000000
   74  H  3 XX    0.003663
   75  H  3 YY    0.000107
   76  H  3 ZZ   -0.003770
   77  H  3 XY    0.007150
   78  H  3 XZ    0.000000
   79  H  3 YZ   -0.000000
   80  H  4  S   -0.275237
   81  H  4  S   -0.783433
   82  H  4  S   -0.064051
   83  H  4  X    0.011836
   84  H  4  Y   -0.000006
   85  H  4  Z    0.000000
   86  H  4  X    0.138164
   87  H  4  Y   -0.000034
   88  H  4  Z   -0.000000
   89  H  4 XX   -0.013650
   90  H  4 YY    0.005304
   91  H  4 ZZ    0.008346
   92  H  4 XY    0.000005
   93  H  4 XZ   -0.000000
   94  H  4 YZ   -0.000000

          ------------------------
          MCSCF OPTIMIZED ORBITALS
          ------------------------

                      1          2          3          4          5
                 -432.8954   -56.6209   -50.4654   -50.4653   -50.4653
                     A          A          A          A          A   
    1  AS 1  S    0.999999   0.000003   0.000000  -0.000000  -0.000000
    2  AS 1  S    0.000001   1.000103   0.000000  -0.000000   0.000000
    3  AS 1  S   -0.000004   0.000135   0.000000  -0.000000  -0.000006
    4  AS 1  S   -0.000005   0.000143   0.000000  -0.000000  -0.000008
    5  AS 1  S    0.000016  -0.000426   0.000000   0.000000   0.000000
    6  AS 1  S    0.000005  -0.000141   0.000000  -0.000000  -0.000002
    7  AS 1  X   -0.000000  -0.000002  -0.000000   0.000908   1.000024
    8  AS 1  Y    0.000000  -0.000000   0.000000   1.000025  -0.000908
    9  AS 1  Z    0.000000  -0.000000   1.000026  -0.000000   0.000000
   10  AS 1  X    0.000000   0.000000   0.000000  -0.000000  -0.000004
   11  AS 1  Y    0.000000   0.000000   0.000000  -0.000001   0.000000
   12  AS 1  Z    0.000000  -0.000000   0.000001  -0.000000   0.000000
   13  AS 1  X    0.000000  -0.000000   0.000000  -0.000000  -0.000093
   14  AS 1  Y    0.000000  -0.000000   0.000000  -0.000085   0.000000
   15  AS 1  Z    0.000000  -0.000000  -0.000002  -0.000000   0.000000
   16  AS 1  X    0.000000  -0.000000   0.000000  -0.000000  -0.000501
   17  AS 1  Y    0.000000  -0.000000  -0.000000  -0.000500   0.000000
   18  AS 1  Z    0.000000  -0.000000  -0.000447   0.000000  -0.000000
   19  AS 1  X    0.000000  -0.000000   0.000000  -0.000000  -0.000090
   20  AS 1  Y    0.000000  -0.000000   0.000000  -0.000090   0.000000
   21  AS 1  Z    0.000000  -0.000000  -0.000069   0.000000  -0.000000
   22  AS 1 XX    0.000000  -0.000001   0.000000   0.000000   0.000002
   23  AS 1 YY    0.000000  -0.000000   0.000000  -0.000000  -0.000002
   24  AS 1 ZZ   -0.000000   0.000001   0.000000  -0.000000  -0.000000
   25  AS 1 XY    0.000000   0.000000   0.000000  -0.000002   0.000000
   26  AS 1 XZ    0.000000  -0.000000   0.000000  -0.000000   0.000000
   27  AS 1 YZ   -0.000000  -0.000000   0.000000  -0.000000   0.000000
   28  AS 1 XX    0.000000  -0.000002   0.000000  -0.000000  -0.000058
   29  AS 1 YY    0.000000  -0.000002  -0.000000   0.000000   0.000056
   30  AS 1 ZZ   -0.000000   0.000004   0.000000   0.000000   0.000002
   31  AS 1 XY   -0.000000   0.000000  -0.000000   0.000063  -0.000000
   32  AS 1 XZ    0.000000  -0.000000  -0.000000   0.000000   0.000000
   33  AS 1 YZ    0.000000   0.000000  -0.000000  -0.000000   0.000000
   34  AS 1 XX    0.000000  -0.000002   0.000000  -0.000000  -0.000018
   35  AS 1 YY    0.000000  -0.000002  -0.000000   0.000000   0.000016
   36  AS 1 ZZ   -0.000000   0.000004   0.000000   0.000000   0.000001
   37  AS 1 XY   -0.000000   0.000000  -0.000000   0.000017  -0.000000
   38  AS 1 XZ    0.000000  -0.000000  -0.000000  -0.000000   0.000000
   39  AS 1 YZ    0.000000  -0.000000  -0.000000  -0.000000  -0.000000
   40  AS 1 XXX   0.000000  -0.000006   0.000000  -0.000000  -0.000015
   41  AS 1 YYY   0.000000  -0.000000   0.000000  -0.000013   0.000000
   42  AS 1 ZZZ   0.000000  -0.000000  -0.000000  -0.000000   0.000000
   43  AS 1 XXY   0.000000  -0.000000   0.000000  -0.000006   0.000000
   44  AS 1 XXZ   0.000000  -0.000000  -0.000000   0.000000   0.000000
   45  AS 1 YYX  -0.000000   0.000008   0.000000   0.000000  -0.000004
   46  AS 1 YYZ   0.000000  -0.000000   0.000000  -0.000000   0.000000
   47  AS 1 ZZX  -0.000000   0.000000   0.000000   0.000000   0.000024
   48  AS 1 ZZY  -0.000000   0.000000  -0.000000   0.000023  -0.000000
   49  AS 1 XYZ   0.000000   0.000000   0.000000  -0.000000   0.000000
   50  H  2  S   -0.000000   0.000006   0.000000  -0.000012   0.000007
   51  H  2  S   -0.000000   0.000011  -0.000000   0.000057  -0.000033
   52  H  2  S   -0.000001   0.000029  -0.000000   0.000040  -0.000023
   53  H  2  X   -0.000000   0.000002   0.000000   0.000007  -0.000004
   54  H  2  Y    0.000000  -0.000003  -0.000000  -0.000012   0.000007
   55  H  2  Z   -0.000000  -0.000000   0.000001   0.000000   0.000000
   56  H  2  X   -0.000000   0.000004  -0.000000   0.000029  -0.000019
   57  H  2  Y    0.000000  -0.000007   0.000000  -0.000053   0.000029
   58  H  2  Z    0.000000   0.000000  -0.000005  -0.000000   0.000000
   59  H  2 XX    0.000000  -0.000001   0.000000  -0.000002   0.000005
   60  H  2 YY   -0.000000   0.000005  -0.000000   0.000021  -0.000016
   61  H  2 ZZ    0.000000  -0.000004   0.000000  -0.000019   0.000011
   62  H  2 XY    0.000000  -0.000006   0.000000  -0.000028   0.000014
   63  H  2 XZ    0.000000  -0.000000   0.000003  -0.000000   0.000000
   64  H  2 YZ    0.000000  -0.000000  -0.000005  -0.000000   0.000000
   65  H  3  S   -0.000000   0.000006  -0.000000   0.000012   0.000007
   66  H  3  S   -0.000000   0.000011   0.000000  -0.000058  -0.000033
   67  H  3  S   -0.000001   0.000029   0.000000  -0.000040  -0.000023
   68  H  3  X   -0.000000   0.000002  -0.000000  -0.000007  -0.000004
   69  H  3  Y   -0.000000   0.000003  -0.000000  -0.000012  -0.000007
   70  H  3  Z    0.000000   0.000000   0.000001   0.000000   0.000000
   71  H  3  X   -0.000000   0.000004   0.000000  -0.000029  -0.000019
   72  H  3  Y   -0.000000   0.000007   0.000000  -0.000053  -0.000029
   73  H  3  Z   -0.000000  -0.000000  -0.000005  -0.000000   0.000000
   74  H  3 XX    0.000000  -0.000001   0.000000   0.000002   0.000005
   75  H  3 YY   -0.000000   0.000005   0.000000  -0.000021  -0.000016
   76  H  3 ZZ    0.000000  -0.000004  -0.000000   0.000019   0.000011
   77  H  3 XY   -0.000000   0.000006   0.000000  -0.000028  -0.000014
   78  H  3 XZ    0.000000  -0.000000   0.000003  -0.000000   0.000000
   79  H  3 YZ    0.000000  -0.000000   0.000005   0.000000   0.000000
   80  H  4  S   -0.000000   0.000007   0.000000  -0.000000  -0.000014
   81  H  4  S   -0.000001   0.000012   0.000000   0.000000   0.000077
   82  H  4  S   -0.000001   0.000030  -0.000000   0.000000   0.000048
   83  H  4  X    0.000000  -0.000004   0.000000  -0.000000  -0.000018
   84  H  4  Y    0.000000  -0.000000  -0.000000  -0.000000   0.000000
   85  H  4  Z    0.000000  -0.000000   0.000001   0.000000   0.000000
   86  H  4  X    0.000000  -0.000009   0.000000  -0.000000  -0.000076
   87  H  4  Y    0.000000  -0.000000   0.000000  -0.000001   0.000000
   88  H  4  Z    0.000000  -0.000000  -0.000005  -0.000000   0.000000
   89  H  4 XX   -0.000000   0.000008  -0.000000   0.000000   0.000042
   90  H  4 YY    0.000000  -0.000004   0.000000  -0.000000  -0.000020
   91  H  4 ZZ    0.000000  -0.000004   0.000000  -0.000000  -0.000022
   92  H  4 XY    0.000000  -0.000000   0.000000  -0.000004   0.000000
   93  H  4 XZ    0.000000  -0.000000  -0.000007   0.000000   0.000000
   94  H  4 YZ    0.000000  -0.000000  -0.000000  -0.000000   0.000000

                      6          7          8          9         10
                   -8.3450    -6.1998    -6.1997    -6.1964    -2.4338
                     A          A          A          A          A   
    1  AS 1  S   -0.000085  -0.000003  -0.000000  -0.000000   0.000005
    2  AS 1  S   -0.000609  -0.000023  -0.000000  -0.000000   0.000031
    3  AS 1  S    0.975257  -0.000155  -0.000000  -0.000000   0.000086
    4  AS 1  S   -0.001924  -0.000086  -0.000000  -0.000000   0.000006
    5  AS 1  S    0.036270   0.000037   0.000000   0.000000  -0.000121
    6  AS 1  S    0.004132   0.000022   0.000000  -0.000000  -0.000079
    7  AS 1  X   -0.000002  -0.000105  -0.000000  -0.000000   0.000213
    8  AS 1  Y   -0.000000   0.000000  -0.000106   0.000000  -0.000000
    9  AS 1  Z    0.000000   0.000000  -0.000000   0.000031  -0.000000
   10  AS 1  X    0.000058   0.974398   0.000872   0.000000   0.000974
   11  AS 1  Y    0.000000  -0.000872   0.974388  -0.000000  -0.000001
   12  AS 1  Z    0.000000  -0.000000   0.000000   0.975679  -0.000000
   13  AS 1  X   -0.000018  -0.000992  -0.000001  -0.000000   0.004661
   14  AS 1  Y   -0.000000   0.000001  -0.001007   0.000000  -0.000004
   15  AS 1  Z    0.000000   0.000000  -0.000000   0.000431   0.000000
   16  AS 1  X    0.000014   0.047780   0.000043   0.000000  -0.001841
   17  AS 1  Y    0.000000  -0.000043   0.047810  -0.000000   0.000002
   18  AS 1  Z    0.000000  -0.000000   0.000000   0.046644  -0.000000
   19  AS 1  X    0.000007   0.002066   0.000002   0.000000  -0.002558
   20  AS 1  Y    0.000000  -0.000002   0.002070   0.000000   0.000002
   21  AS 1  Z    0.000000   0.000000   0.000000   0.001652  -0.000000
   22  AS 1 XX    0.000331   0.000652   0.000001  -0.000000   0.840663
   23  AS 1 YY    0.000316  -0.000622  -0.000000  -0.000000  -0.833625
   24  AS 1 ZZ   -0.000647  -0.000030  -0.000000  -0.000000  -0.007038
   25  AS 1 XY   -0.000000   0.000001  -0.000669   0.000000   0.000871
   26  AS 1 XZ    0.000000   0.000000   0.000000   0.000023   0.000000
   27  AS 1 YZ    0.000000  -0.000000  -0.000000   0.000000  -0.000000
   28  AS 1 XX    0.000048  -0.000330  -0.000000  -0.000000   0.073610
   29  AS 1 YY    0.000053   0.000321   0.000000   0.000000  -0.072984
   30  AS 1 ZZ   -0.000101   0.000009   0.000000   0.000000  -0.000626
   31  AS 1 XY    0.000000  -0.000000   0.000389  -0.000000   0.000076
   32  AS 1 XZ    0.000000   0.000000  -0.000000   0.000014  -0.000000
   33  AS 1 YZ   -0.000000   0.000000  -0.000000   0.000000  -0.000000
   34  AS 1 XX   -0.000016  -0.000217  -0.000000   0.000000   0.000494
   35  AS 1 YY   -0.000014   0.000213   0.000000  -0.000000  -0.000456
   36  AS 1 ZZ    0.000031   0.000004   0.000000   0.000000  -0.000038
   37  AS 1 XY    0.000000  -0.000000   0.000247  -0.000000   0.000000
   38  AS 1 XZ    0.000000  -0.000000  -0.000000  -0.000006  -0.000000
   39  AS 1 YZ    0.000000  -0.000000  -0.000000  -0.000000   0.000000
   40  AS 1 XXX   0.000048   0.000051   0.000000  -0.000000   0.000495
   41  AS 1 YYY  -0.000000  -0.000000   0.000047   0.000000  -0.000001
   42  AS 1 ZZZ   0.000000   0.000000   0.000000  -0.000215  -0.000000
   43  AS 1 XXY  -0.000000  -0.000000   0.000030   0.000000  -0.000000
   44  AS 1 XXZ   0.000000   0.000000   0.000000   0.000147  -0.000000
   45  AS 1 YYX  -0.000066   0.000029   0.000000  -0.000000   0.000136
   46  AS 1 YYZ   0.000000  -0.000000  -0.000000   0.000142   0.000000
   47  AS 1 ZZX   0.000001  -0.000098  -0.000000   0.000000  -0.000800
   48  AS 1 ZZY   0.000000   0.000000  -0.000094  -0.000000   0.000001
   49  AS 1 XYZ   0.000000  -0.000000   0.000000  -0.000000  -0.000000
   50  H  2  S    0.000002  -0.000213   0.000366   0.000000  -0.002726
   51  H  2  S    0.000328  -0.000973   0.001716  -0.000000  -0.001380
   52  H  2  S   -0.000672   0.000344  -0.000599  -0.000000  -0.000851
   53  H  2  X   -0.000005   0.000012   0.000022  -0.000000  -0.000724
   54  H  2  Y    0.000009   0.000022  -0.000014  -0.000000   0.000492
   55  H  2  Z    0.000000   0.000000   0.000000   0.000011  -0.000000
   56  H  2  X    0.000005  -0.000041   0.000266  -0.000000  -0.000728
   57  H  2  Y   -0.000009   0.000256  -0.000351   0.000000  -0.000475
   58  H  2  Z   -0.000000   0.000000   0.000000   0.000123  -0.000000
   59  H  2 XX   -0.000004  -0.000002  -0.000050   0.000000  -0.000118
   60  H  2 YY    0.000023  -0.000041   0.000125  -0.000000  -0.000115
   61  H  2 ZZ   -0.000020   0.000043  -0.000075   0.000000   0.000233
   62  H  2 XY   -0.000026   0.000101  -0.000141   0.000000   0.000520
   63  H  2 XZ    0.000000  -0.000000   0.000000  -0.000018  -0.000000
   64  H  2 YZ   -0.000000   0.000000   0.000000   0.000031   0.000000
   65  H  3  S    0.000002  -0.000212  -0.000366  -0.000000  -0.002717
   66  H  3  S    0.000328  -0.000970  -0.001718   0.000000  -0.001376
   67  H  3  S   -0.000672   0.000343   0.000599   0.000000  -0.000848
   68  H  3  X   -0.000005   0.000012  -0.000022   0.000000  -0.000723
   69  H  3  Y   -0.000009  -0.000022  -0.000014  -0.000000  -0.000490
   70  H  3  Z    0.000000   0.000000   0.000000   0.000011  -0.000000
   71  H  3  X    0.000005  -0.000041  -0.000267   0.000000  -0.000729
   72  H  3  Y    0.000009  -0.000255  -0.000352   0.000000   0.000475
   73  H  3  Z    0.000000  -0.000000   0.000000   0.000123   0.000000
   74  H  3 XX   -0.000004  -0.000002   0.000050  -0.000000  -0.000119
   75  H  3 YY    0.000023  -0.000041  -0.000125   0.000000  -0.000114
   76  H  3 ZZ   -0.000020   0.000042   0.000075  -0.000000   0.000232
   77  H  3 XY    0.000026  -0.000101  -0.000141   0.000000  -0.000519
   78  H  3 XZ   -0.000000   0.000000  -0.000000  -0.000018   0.000000
   79  H  3 YZ   -0.000000   0.000000  -0.000000  -0.000031  -0.000000
   80  H  4  S    0.000001   0.000443   0.000000  -0.000000   0.005719
   81  H  4  S    0.000344   0.002030   0.000002   0.000000   0.002592
   82  H  4  S   -0.000687  -0.000707  -0.000001  -0.000000   0.001711
   83  H  4  X    0.000001  -0.000059  -0.000000  -0.000000  -0.001700
   84  H  4  Y    0.000000  -0.000000   0.000025  -0.000000   0.000000
   85  H  4  Z    0.000000   0.000000   0.000000   0.000011  -0.000000
   86  H  4  X   -0.000012  -0.000504  -0.000000  -0.000000   0.000171
   87  H  4  Y    0.000000  -0.000000   0.000107   0.000000   0.000001
   88  H  4  Z    0.000000  -0.000000  -0.000000   0.000125  -0.000000
   89  H  4 XX    0.000047   0.000253   0.000000   0.000000   0.001080
[...]
      ---      ----        ----    --------- --------- -----
       71    0.950812   -0.950812  2+22000
      177   -0.119701    0.119701  2+20200
        6    0.116085   -0.116085  22200+0
       38    0.103175   -0.103175  2202+00
       74   -0.100718    0.100718  2022+00
       78   -0.091331    0.091331  20220+0
      248   -0.069577    0.069577  2+02200
      109    0.055784   -0.055784  +-22+00
      822   -0.053137    0.053137  2+02002
      122   -0.051087   -0.051087  +2-200+
      113    0.050882   -0.050882  +-220+0
       42   -0.044620    0.044620  22020+0
      810    0.039681    0.039681  -++2+0-
       75   -0.039477   -0.039477  -+22+00
       53   -0.036936   -0.036936  2-+200+
      332    0.032204   -0.032204  ++-2-0+
      841    0.029424   -0.029424  +2+200-
      878   -0.028849   -0.028849  ++-2+0-
      809   -0.027599    0.027599  20+2+0-
      458    0.027590   -0.027590  2+02+-0
      526   -0.026690   -0.026690  ++220-0
      323   -0.025946    0.025946  +022-+0
      320   -0.025716   -0.025716  0+22200
      264   -0.025712    0.025712  -++2-0+
      894   -0.025466   -0.025466  0+22002
      534   -0.025415   -0.025415  0+22020
      252   -0.024715   -0.024715  2+02-+0
      263    0.024460    0.024460  20+2-0+
      806    0.024450    0.024450  2++200-
       79   -0.024192   -0.024192  -+220+0
      462   -0.022629    0.022629  2+02020
      529    0.021675    0.021675  +022+-0
       54    0.021663   -0.021663  -2+200+

 ---------------------------------------
      - DIABATIC STATES IN CMO -        
 ---------------------------------------

 State #    1  Energy =   -2235.921694798

      Det      Coef        Coefp    Occupancy (Ignoring core)
      ---      ----        ----    --------- --------- -----
        1   -0.976691    0.976691  222+000
      107    0.073525   -0.073525  +22-+00
      143    0.062642    0.062642  220+200
      393    0.060218    0.060218  202+020
      717    0.059430    0.059430  220+002
      179    0.059010    0.059010  202+200
      211   -0.038228   -0.038228  +22+-00
        5   -0.035297   -0.035297  -22++00
       51    0.033728   -0.033728  22+-00+
       76    0.033219    0.033219  2+2-0+0
      738    0.033108    0.033108  2+-++0-
      704   -0.032738    0.032738  2-+++0-
      218    0.032687   -0.032687  +-2+-+0
      227    0.032392    0.032392  +2-+-0+
      389    0.031173    0.031173  202++-0
      353   -0.031106   -0.031106  220++-0
      158    0.030961    0.030961  2-++-0+
      192   -0.030719    0.030719  2+-+-0+
      215    0.029773    0.029773  022+200
      183   -0.029041    0.029041  202+-+0
      147    0.028996   -0.028996  220+-+0
      390    0.028566   -0.028566  -+2++-0
      705    0.028229    0.028229  -2+++0-
        8   -0.026224    0.026224  2-2+0+0
       17   -0.026093   -0.026093  22-+00+
      424   -0.025903   -0.025903  +-2++-0
      368   -0.025806   -0.025806  2-++0-+
      742   -0.025775   -0.025775  2+-+0+-
      773   -0.025576    0.025576  +2-++0-
      184   -0.024433   -0.024433  -+2+-+0
      159   -0.024099    0.024099  -2++-0+
      753    0.021991    0.021991  202+002
      789    0.021579    0.021579  022+002
      429    0.021562    0.021562  022+020
      357    0.020456    0.020456  220+020

 State #    2  Energy =   -2235.728721449

      Det      Coef        Coefp    Occupancy (Ignoring core)
      ---      ----        ----    --------- --------- -----
        2   -0.951849    0.951849  2220+00
      106   -0.172447   -0.172447  +222000
      156   -0.083868    0.083868  22+0-0+
      702    0.080927    0.080927  22+0+0-
      181   -0.077742   -0.077742  2+20-+0
      387    0.074452   -0.074452  2+20+-0
      212    0.064000    0.064000  +220200
      396    0.062103    0.062103  2020+20
      720    0.061502    0.061502  2200+02
      110    0.057398   -0.057398  0222+00
      391    0.051704   -0.051704  2+20020
      751   -0.049902    0.049902  2+20002
      706   -0.048699   -0.048699  22+00+-
      366    0.047964   -0.047964  22+00-+
       38    0.031331   -0.031331  2202+00
       74    0.031167   -0.031167  2022+00
      161    0.028850    0.028850  2-+020+
      195   -0.028293    0.028293  2+-020+
      150    0.027271   -0.027271  22002+0
      186   -0.027156    0.027156  20202+0
      756    0.025328    0.025328  2020+02
      371   -0.025221   -0.025221  2-+0+-+
      745   -0.025131   -0.025131  2+-0++-
      360    0.024129    0.024129  2200+20
      221    0.022154   -0.022154  +-202+0
      230    0.021893    0.021893  +2-020+
      187   -0.021195   -0.021195  -+202+0
      162   -0.020965    0.020965  -2+020+

 State #    3  Energy =   -2235.693771591

      Det      Coef        Coefp    Occupancy (Ignoring core)
      ---      ----        ----    --------- --------- -----
       36    0.950013    0.950013  22+2000
      142   -0.121240   -0.121240  22+0200
       16    0.119257   -0.119257  222000+
       73   -0.103484    0.103484  2+-2+00
       39    0.103294    0.103294  2-+2+00
       52   -0.092991    0.092991  220200+
      249   -0.067749    0.067749  20+2200
      108    0.056743    0.056743  +2-2+00
      463   -0.053836    0.053836  20+2020
      123   -0.050463    0.050463  +-2200+
      112   -0.049080   -0.049080  +2-20+0
       88   -0.044295    0.044295  202200+
      460   -0.039732   -0.039732  -++2+-0
       40   -0.039640    0.039640  -2+2+00
       77    0.034553   -0.034553  2+-20+0
      288   -0.032378   -0.032378  +-+2-+0
      876    0.029181    0.029181  ++2200-
      494    0.029135   -0.029135  +-+2+-0
      491    0.028308   -0.028308  +2+20-0
      808   -0.028252    0.028252  2+02+0-
      459   -0.026824    0.026824  20+2+-0
      285   -0.025879    0.025879  02+2200
      297   -0.025790    0.025790  +202-0+
      254    0.025759   -0.025759  -++2-+0
      859   -0.025533    0.025533  02+2002
      499   -0.025144    0.025144  02+2020
      262    0.025034    0.025034  2+02-0+
      456   -0.024687   -0.024687  2++20-0
      253    0.023927    0.023927  20+2-+0
      823   -0.022462    0.022462  20+2002
      843    0.021750    0.021750  +202+0-
       89    0.021282    0.021282  -+2200+
       44    0.020771   -0.020771  -2+20+0

 State #    4  Energy =   -2235.691951674

      Det      Coef        Coefp    Occupancy (Ignoring core)
      ---      ----        ----    --------- --------- -----
       71    0.950748   -0.950748  2+22000
      177   -0.118971    0.118971  2+20200
        6    0.116038   -0.116038  22200+0
       38    0.104437   -0.104437  2202+00
       74   -0.097146    0.097146  2022+00
       78   -0.092945    0.092945  20220+0
      248   -0.070961    0.070961  2+02200
      109    0.055232   -0.055232  +-22+00
      113    0.053293   -0.053293  +-220+0
      822   -0.053101    0.053101  2+02002
      122   -0.051044   -0.051044  +2-200+
       42   -0.041841    0.041841  22020+0
       75   -0.039702   -0.039702  -+22+00
      810    0.039345    0.039345  -++2+0-
       53   -0.037114   -0.037114  2-+200+
      332    0.032201   -0.032201  ++-2-0+
      526   -0.029796   -0.029796  ++220-0
      841    0.029671   -0.029671  +2+200-
      878   -0.028799   -0.028799  ++-2+0-
      809   -0.028343    0.028343  20+2+0-
      458    0.026332   -0.026332  2+02+-0
      323   -0.025826    0.025826  +022-+0
      534   -0.025642   -0.025642  0+22020
      320   -0.025518   -0.025518  0+22200
      264   -0.025445    0.025445  -++2-0+
      894   -0.025444   -0.025444  0+22002
      263    0.025253    0.025253  20+2-0+
      806    0.023796    0.023796  2++200-
      252   -0.023532   -0.023532  2+02-+0
       79   -0.023497   -0.023497  -+220+0
      529    0.021817    0.021817  +022+-0
       54    0.021373   -0.021373  -2+200+
      462   -0.021281    0.021281  2+02020

 ---------------------------------------
    -DIABATIC STATES IN PROTOTYPES-     
 ---------------------------------------

     STATE:    1
 Group Ref#    Coefficients
     1    1    0.999070
     2    2    0.000000
     3    3    0.000000
     4    4    0.000000

WEIGHT OF LISTED PROTOTYPES:   99.81%

     STATE:    2
 Group Ref#    Coefficients
     1    1    0.000000
     2    2    0.997300
     3    3   -0.000010
     4    4   -0.000213

WEIGHT OF LISTED PROTOTYPES:   99.46%

     STATE:    3
 Group Ref#    Coefficients
     1    1    0.000000
     2    2   -0.000010
     3    3    0.997706
     4    4   -0.000001

WEIGHT OF LISTED PROTOTYPES:   99.54%

     STATE:    4
 Group Ref#    Coefficients
     1    1    0.000000
     2    2   -0.000213
     3    3   -0.000001
     4    4    0.997760

WEIGHT OF LISTED PROTOTYPES:   99.55%

     DIRECT MAX. DIABATIZATION FINISHED    
 CPU     0: STEP CPU TIME=     0.48 TOTAL CPU TIME=        194.5 (      3.2 MIN)
 TOTAL WALL CLOCK TIME=        238.1 SECONDS, CPU UTILIZATION IS    81.69%

DIABATS FOR SPIN-ORBIT CALCULATION ARE READY

TRANSITION DIPOLES BETWEEN ADIABATS (in A.U.):

STATE PAIR      X         Y         Z
    1    1 -0.018987 -0.000035 -0.000000
    2    1  0.000000  0.000000  0.466536
    2    2 -0.048753 -0.000091  0.000000
    3    1 -0.000000  0.000000  0.000046
    3    2 -0.000161 -0.173117 -0.000000
    3    3  0.399903  0.000729 -0.000000
    4    1  0.000000 -0.000000  0.016247
    4    2 -0.160369  0.000141 -0.000000
    4    3 -0.000754  0.419257 -0.000000
    4    4 -0.433694 -0.000794  0.000000


TRANSITION DIPOLES BETWEEN DIABATS (in A.U.):

STATE PAIR      X         Y         Z
    1    1 -0.018987 -0.000035 -0.000000
    2    1  0.000000  0.000000  0.466766
    2    2 -0.055242 -0.000100 -0.000000
    3    1  0.000000  0.000000  0.000095
    3    2 -0.002752  0.164774  0.000000
    3    3  0.399680 -0.013901 -0.000000
    4    1 -0.000000  0.000000 -0.007022
    4    2  0.167829  0.002711  0.000000
    4    3  0.013586  0.422370 -0.000000
    4    4 -0.426983  0.013844  0.000000

TRANSITION DIPOLES BETWEEN DIRECT MAX. DIABATS (in A.U.):

STATE PAIR      X         Y         Z
    1    1 -0.018987 -0.000035 -0.000000
    2    1  0.000000  0.000000  0.466766
    2    2 -0.055242 -0.000100 -0.000000
    3    1  0.000000  0.000000  0.000095
    3    2 -0.002752  0.164774  0.000000
    3    3  0.399680 -0.013901 -0.000000
    4    1 -0.000000  0.000000 -0.007022
    4    2  0.167829  0.002711  0.000000
    4    3  0.013586  0.422370 -0.000000
    4    4 -0.426983  0.013844  0.000000
 No $TRANST Group Found.
 Quit without doing spin-orbit coupling
 ..... DONE WITH MP2 ENERGY .....
 CPU     0: STEP CPU TIME=     0.01 TOTAL CPU TIME=        194.5 (      3.2 MIN)
 TOTAL WALL CLOCK TIME=        238.1 SECONDS, CPU UTILIZATION IS    81.69%
            250000000  WORDS OF DYNAMIC MEMORY USED
 EXECUTION OF GAMESS TERMINATED NORMALLY Mon Dec  4 10:32:46 2023
 DDI: 14063448 bytes (13.4 MB / 1 MWords) used by master data server.

 ----------------------------------------
 CPU timing information for all processes
 ========================================
 0: 194.74 + 0.424 = 194.498
 1: 192.724 + 0.404 = 193.128
 ----------------------------------------
Note: The following floating-point exceptions are signalling: IEEE_DENORMAL
Note: The following floating-point exceptions are signalling: IEEE_DENORMAL
 ddikick.x: exited gracefully.
unset echo
----- accounting info -----
Files used on the master node io003 were:
-rw-r--r-- 1 bjb2chen nooijen  144601 Dec  4 10:28 /home/bjb2chen/gmsscr//AsH3cat_cct_gmcpt_C1_3st_diab_mode12_-0.05x2.F05
-rw-r--r-- 1 bjb2chen nooijen 2546152 Dec  4 10:32 /home/bjb2chen/gmsscr//AsH3cat_cct_gmcpt_C1_3st_diab_mode12_-0.05x2.F09
-rw-r--r-- 1 bjb2chen nooijen 3600320 Dec  4 10:32 /home/bjb2chen/gmsscr//AsH3cat_cct_gmcpt_C1_3st_diab_mode12_-0.05x2.F09.001
-rw-r--r-- 1 bjb2chen nooijen 3010240 Dec  4 10:32 /home/bjb2chen/gmsscr//AsH3cat_cct_gmcpt_C1_3st_diab_mode12_-0.05x2.F10
-rw-r--r-- 1 bjb2chen nooijen  687168 Dec  4 10:32 /home/bjb2chen/gmsscr//AsH3cat_cct_gmcpt_C1_3st_diab_mode12_-0.05x2.F13
-rw-r--r-- 1 bjb2chen nooijen  687168 Dec  4 10:32 /home/bjb2chen/gmsscr//AsH3cat_cct_gmcpt_C1_3st_diab_mode12_-0.05x2.F13.001
-rw-r--r-- 1 bjb2chen nooijen  181872 Dec  4 10:32 /home/bjb2chen/gmsscr//AsH3cat_cct_gmcpt_C1_3st_diab_mode12_-0.05x2.F15
-rw-r--r-- 1 bjb2chen nooijen       0 Dec  4 10:28 /home/bjb2chen/gmsscr//AsH3cat_cct_gmcpt_C1_3st_diab_mode12_-0.05x2.F16
-rw-r--r-- 1 bjb2chen nooijen    9808 Dec  4 10:32 /home/bjb2chen/gmsscr//AsH3cat_cct_gmcpt_C1_3st_diab_mode12_-0.05x2.F70
-rw-r--r-- 1 bjb2chen nooijen    9808 Dec  4 10:32 /home/bjb2chen/gmsscr//AsH3cat_cct_gmcpt_C1_3st_diab_mode12_-0.05x2.F70.001
-rw-r--r-- 1 bjb2chen nooijen    9808 Dec  4 10:32 /home/bjb2chen/gmsscr//AsH3cat_cct_gmcpt_C1_3st_diab_mode12_-0.05x2.F71
-rw-r--r-- 1 bjb2chen nooijen    9808 Dec  4 10:32 /home/bjb2chen/gmsscr//AsH3cat_cct_gmcpt_C1_3st_diab_mode12_-0.05x2.F71.001
-rw-r--r-- 1 bjb2chen nooijen   19608 Dec  4 10:32 /home/bjb2chen/gmsscr//AsH3cat_cct_gmcpt_C1_3st_diab_mode12_-0.05x2.F72
-rw-r--r-- 1 bjb2chen nooijen   19608 Dec  4 10:32 /home/bjb2chen/gmsscr//AsH3cat_cct_gmcpt_C1_3st_diab_mode12_-0.05x2.F72.001
-rw-r--r-- 1 bjb2chen nooijen   19608 Dec  4 10:32 /home/bjb2chen/gmsscr//AsH3cat_cct_gmcpt_C1_3st_diab_mode12_-0.05x2.F73
-rw-r--r-- 1 bjb2chen nooijen   19608 Dec  4 10:32 /home/bjb2chen/gmsscr//AsH3cat_cct_gmcpt_C1_3st_diab_mode12_-0.05x2.F73.001
-rw-r--r-- 1 bjb2chen nooijen  961208 Dec  4 10:32 /home/bjb2chen/gmsscr//AsH3cat_cct_gmcpt_C1_3st_diab_mode12_-0.05x2.F74
-rw-r--r-- 1 bjb2chen nooijen  959640 Dec  4 10:32 /home/bjb2chen/gmsscr//AsH3cat_cct_gmcpt_C1_3st_diab_mode12_-0.05x2.F74.001
-rw-r--r-- 1 bjb2chen nooijen       0 Dec  4 10:28 /home/bjb2chen/gmsscr//AsH3cat_cct_gmcpt_C1_3st_diab_mode12_-0.05x2.F75
-rw-r--r-- 1 bjb2chen nooijen       0 Dec  4 10:28 /home/bjb2chen/gmsscr//AsH3cat_cct_gmcpt_C1_3st_diab_mode12_-0.05x2.F75.001
-rw-r--r-- 1 bjb2chen nooijen   78456 Dec  4 10:32 /home/bjb2chen/gmsscr//AsH3cat_cct_gmcpt_C1_3st_diab_mode12_-0.05x2.F76
-rw-r--r-- 1 bjb2chen nooijen   78456 Dec  4 10:32 /home/bjb2chen/gmsscr//AsH3cat_cct_gmcpt_C1_3st_diab_mode12_-0.05x2.F76.001
-rw-r--r-- 1 bjb2chen nooijen       0 Dec  4 10:28 /home/bjb2chen/gmsscr//AsH3cat_cct_gmcpt_C1_3st_diab_mode12_-0.05x2.F77
-rw-r--r-- 1 bjb2chen nooijen       0 Dec  4 10:28 /home/bjb2chen/gmsscr//AsH3cat_cct_gmcpt_C1_3st_diab_mode12_-0.05x2.F77.001
-rw-r--r-- 1 bjb2chen nooijen    6408 Dec  4 10:32 /home/bjb2chen/gmsscr//AsH3cat_cct_gmcpt_C1_3st_diab_mode12_-0.05x2.F78
-rw-r--r-- 1 bjb2chen nooijen    6408 Dec  4 10:32 /home/bjb2chen/gmsscr//AsH3cat_cct_gmcpt_C1_3st_diab_mode12_-0.05x2.F78.001
-rw-r--r-- 1 bjb2chen nooijen   49008 Dec  4 10:32 /home/bjb2chen/gmsscr//AsH3cat_cct_gmcpt_C1_3st_diab_mode12_-0.05x2.F79
-rw-r--r-- 1 bjb2chen nooijen   49008 Dec  4 10:32 /home/bjb2chen/gmsscr//AsH3cat_cct_gmcpt_C1_3st_diab_mode12_-0.05x2.F79.001
-rw-r--r-- 1 bjb2chen nooijen     168 Dec  4 10:32 /home/bjb2chen/gmsscr//AsH3cat_cct_gmcpt_C1_3st_diab_mode12_-0.05x2.F80
-rw-r--r-- 1 bjb2chen nooijen     168 Dec  4 10:32 /home/bjb2chen/gmsscr//AsH3cat_cct_gmcpt_C1_3st_diab_mode12_-0.05x2.F80.001
-rw-r--r-- 1 bjb2chen nooijen  102416 Dec  4 10:32 /home/bjb2chen/gmsscr//AsH3cat_cct_gmcpt_C1_3st_diab_mode12_-0.05x2.F81
-rw-r--r-- 1 bjb2chen nooijen  102416 Dec  4 10:32 /home/bjb2chen/gmsscr//AsH3cat_cct_gmcpt_C1_3st_diab_mode12_-0.05x2.F81.001
-rw-r--r-- 1 bjb2chen nooijen     656 Dec  4 10:32 /home/bjb2chen/gmsscr//AsH3cat_cct_gmcpt_C1_3st_diab_mode12_-0.05x2.F82
-rw-r--r-- 1 bjb2chen nooijen     656 Dec  4 10:32 /home/bjb2chen/gmsscr//AsH3cat_cct_gmcpt_C1_3st_diab_mode12_-0.05x2.F82.001
-rw-r--r-- 1 bjb2chen nooijen   19216 Dec  4 10:32 /home/bjb2chen/gmsscr//AsH3cat_cct_gmcpt_C1_3st_diab_mode12_-0.05x2.F83
-rw-r--r-- 1 bjb2chen nooijen   19216 Dec  4 10:32 /home/bjb2chen/gmsscr//AsH3cat_cct_gmcpt_C1_3st_diab_mode12_-0.05x2.F83.001
-rw-r--r-- 1 bjb2chen nooijen  327696 Dec  4 10:32 /home/bjb2chen/gmsscr//AsH3cat_cct_gmcpt_C1_3st_diab_mode12_-0.05x2.F84
-rw-r--r-- 1 bjb2chen nooijen  327696 Dec  4 10:32 /home/bjb2chen/gmsscr//AsH3cat_cct_gmcpt_C1_3st_diab_mode12_-0.05x2.F84.001
-rw-r--r-- 1 bjb2chen nooijen 2176264 Dec  4 10:32 /home/bjb2chen/gmsscr//AsH3cat_cct_gmcpt_C1_3st_diab_mode12_-0.05x2.F85
-rw-r--r-- 1 bjb2chen nooijen 2176264 Dec  4 10:32 /home/bjb2chen/gmsscr//AsH3cat_cct_gmcpt_C1_3st_diab_mode12_-0.05x2.F85.001
-rw-r--r-- 1 bjb2chen nooijen 8574496 Dec  4 10:32 /home/bjb2chen/gmsscr//AsH3cat_cct_gmcpt_C1_3st_diab_mode12_-0.05x2.F86
-rw-r--r-- 1 bjb2chen nooijen 8530976 Dec  4 10:32 /home/bjb2chen/gmsscr//AsH3cat_cct_gmcpt_C1_3st_diab_mode12_-0.05x2.F86.001
-rw-r--r-- 1 bjb2chen nooijen    1160 Dec  4 10:32 /home/bjb2chen/gmsscr//AsH3cat_cct_gmcpt_C1_3st_diab_mode12_-0.05x2.F87
-rw-r--r-- 1 bjb2chen nooijen    1160 Dec  4 10:32 /home/bjb2chen/gmsscr//AsH3cat_cct_gmcpt_C1_3st_diab_mode12_-0.05x2.F87.001
-rw-r--r-- 1 bjb2chen nooijen   22752 Dec  4 10:32 /home/bjb2chen/gmsscr//AsH3cat_cct_gmcpt_C1_3st_diab_mode12_-0.05x2.F88
-rw-r--r-- 1 bjb2chen nooijen   22752 Dec  4 10:32 /home/bjb2chen/gmsscr//AsH3cat_cct_gmcpt_C1_3st_diab_mode12_-0.05x2.F88.001
-rw-r--r-- 1 bjb2chen nooijen     648 Dec  4 10:32 /home/bjb2chen/gmsscr//AsH3cat_cct_gmcpt_C1_3st_diab_mode12_-0.05x2.F89
-rw-r--r-- 1 bjb2chen nooijen     648 Dec  4 10:32 /home/bjb2chen/gmsscr//AsH3cat_cct_gmcpt_C1_3st_diab_mode12_-0.05x2.F89.001
-rw-r--r-- 1 bjb2chen nooijen       0 Dec  4 10:28 /home/bjb2chen/gmsscr//AsH3cat_cct_gmcpt_C1_3st_diab_mode12_-0.05x2.F90
-rw-r--r-- 1 bjb2chen nooijen       0 Dec  4 10:28 /home/bjb2chen/gmsscr//AsH3cat_cct_gmcpt_C1_3st_diab_mode12_-0.05x2.F90.001
-rw-r--r-- 1 bjb2chen nooijen   13760 Dec  4 10:32 /home/bjb2chen/gmsscr//AsH3cat_cct_gmcpt_C1_3st_diab_mode12_-0.05x2.F91
-rw-r--r-- 1 bjb2chen nooijen   13760 Dec  4 10:32 /home/bjb2chen/gmsscr//AsH3cat_cct_gmcpt_C1_3st_diab_mode12_-0.05x2.F91.001
-rw-r--r-- 1 bjb2chen nooijen   22776 Dec  4 10:32 /home/bjb2chen/gmsscr//AsH3cat_cct_gmcpt_C1_3st_diab_mode12_-0.05x2.F92
-rw-r--r-- 1 bjb2chen nooijen   22776 Dec  4 10:32 /home/bjb2chen/gmsscr//AsH3cat_cct_gmcpt_C1_3st_diab_mode12_-0.05x2.F92.001
-rw-r--r-- 1 bjb2chen nooijen   23168 Dec  4 10:32 /home/bjb2chen/gmsscr//AsH3cat_cct_gmcpt_C1_3st_diab_mode12_-0.05x2.F93
-rw-r--r-- 1 bjb2chen nooijen   23168 Dec  4 10:32 /home/bjb2chen/gmsscr//AsH3cat_cct_gmcpt_C1_3st_diab_mode12_-0.05x2.F93.001
-rw-r--r-- 1 bjb2chen nooijen   22776 Dec  4 10:32 /home/bjb2chen/gmsscr//AsH3cat_cct_gmcpt_C1_3st_diab_mode12_-0.05x2.F94
-rw-r--r-- 1 bjb2chen nooijen   22776 Dec  4 10:32 /home/bjb2chen/gmsscr//AsH3cat_cct_gmcpt_C1_3st_diab_mode12_-0.05x2.F94.001
-rw-r--r-- 1 bjb2chen nooijen   13760 Dec  4 10:32 /home/bjb2chen/gmsscr//AsH3cat_cct_gmcpt_C1_3st_diab_mode12_-0.05x2.F95
-rw-r--r-- 1 bjb2chen nooijen   13760 Dec  4 10:32 /home/bjb2chen/gmsscr//AsH3cat_cct_gmcpt_C1_3st_diab_mode12_-0.05x2.F95.001
-rw-r--r-- 1 bjb2chen nooijen   39248 Dec  4 10:32 /home/bjb2chen/gmsscr//AsH3cat_cct_gmcpt_C1_3st_diab_mode12_-0.05x2.F96
-rw-r--r-- 1 bjb2chen nooijen   39248 Dec  4 10:32 /home/bjb2chen/gmsscr//AsH3cat_cct_gmcpt_C1_3st_diab_mode12_-0.05x2.F96.001
-rw-r--r-- 1 bjb2chen nooijen    1184 Dec  4 10:32 /home/bjb2chen/gmsscr//AsH3cat_cct_gmcpt_C1_3st_diab_mode12_-0.05x2.F97
-rw-r--r-- 1 bjb2chen nooijen    1184 Dec  4 10:32 /home/bjb2chen/gmsscr//AsH3cat_cct_gmcpt_C1_3st_diab_mode12_-0.05x2.F97.001
-rw-r--r-- 1 bjb2chen nooijen    9808 Dec  4 10:32 /home/bjb2chen/gmsscr//AsH3cat_cct_gmcpt_C1_3st_diab_mode12_-0.05x2.F98
-rw-r--r-- 1 bjb2chen nooijen    9808 Dec  4 10:32 /home/bjb2chen/gmsscr//AsH3cat_cct_gmcpt_C1_3st_diab_mode12_-0.05x2.F98.001
-rw-r--r-- 1 bjb2chen nooijen   30264 Dec  4 10:32 /home/bjb2chen/gmsscr//AsH3cat_cct_gmcpt_C1_3st_diab_mode12_-0.05x2.F99
-rw-r--r-- 1 bjb2chen nooijen   30264 Dec  4 10:32 /home/bjb2chen/gmsscr//AsH3cat_cct_gmcpt_C1_3st_diab_mode12_-0.05x2.F99.001
ls: No match.
ls: No match.
ls: No match.
Mon 04 Dec 2023 10:32:49 AM EST
0.339u 0.057s 4:01.81 0.1%	0+0k 288+496io 0pf+0w
