----- GAMESS execution script 'rungms' -----
This job is running on host io003
under operating system Linux at Mon 04 Dec 2023 10:28:47 AM EST
Available scratch disk space (Kbyte units) at beginning of the job is
Filesystem             1K-blocks       Used Available Use% Mounted on
helmholtz.nlogn:/home 6391504896 5230540800 838824960  87% /home
GAMESS temporary binary files will be written to /home/bjb2chen/gmsscr/
GAMESS supplementary output files will be written to /home/bjb2chen/gamess/vibronics/ash3/4state
Copying input file AsH3cat_cct_gmcpt_C1_3st_diab_mode12_-0.05.inp to your run's scratch directory...
cp AsH3cat_cct_gmcpt_C1_3st_diab_mode12_-0.05.inp /home/bjb2chen/gmsscr//AsH3cat_cct_gmcpt_C1_3st_diab_mode12_-0.05.F05
unset echo
 
Assuming a single but multicore node.
 
/home/bjb2chen/gamess/ddikick.x /home/bjb2chen/gamess/gamess.00.x AsH3cat_cct_gmcpt_C1_3st_diab_mode12_-0.05 -ddi 1 2 io003:cpus=2 -scr /home/bjb2chen/gmsscr/

 Distributed Data Interface kickoff program.
 Initiating 2 compute processes on 1 nodes to run the following command:
 /home/bjb2chen/gamess/gamess.00.x AsH3cat_cct_gmcpt_C1_3st_diab_mode12_-0.05 

          ******************************************************
          *         GAMESS VERSION = 02 AUG 2018 (R2)         *
          *             FROM IOWA STATE UNIVERSITY             *
          * M.W.SCHMIDT, K.K.BALDRIDGE, J.A.BOATZ, S.T.ELBERT, *
          *   M.S.GORDON, J.H.JENSEN, S.KOSEKI, N.MATSUNAGA,   *
          *          K.A.NGUYEN, S.J.SU, T.L.WINDUS,           *
          *       TOGETHER WITH M.DUPUIS, J.A.MONTGOMERY       *
          *         J.COMPUT.CHEM.  14, 1347-1363(1993)        *
          **************** 64 BIT LINUX VERSION ****************

  SINCE 1993, STUDENTS AND POSTDOCS WORKING AT IOWA STATE UNIVERSITY
  AND ALSO IN THEIR VARIOUS JOBS AFTER LEAVING ISU HAVE MADE IMPORTANT
  CONTRIBUTIONS TO THE CODE:
     IVANA ADAMOVIC, CHRISTINE AIKENS, YURI ALEXEEV, POOJA ARORA,
     ANDREY ASADCHEV, ROB BELL, PRADIPTA BANDYOPADHYAY, JONATHAN BENTZ,
     BRETT BODE, KURT BRORSEN, CALEB CARLIN, GALINA CHABAN, WEI CHEN,
     CHEOL HO CHOI, PAUL DAY, ALBERT DEFUSCO, NUWAN DESILVA, TIM DUDLEY,
     DMITRI FEDOROV, ALEX FINDLATER, GRAHAM FLETCHER, MARK FREITAG,
     KURT GLAESEMANN, ANASTASIA GUININA,
     DAN KEMP, GRANT MERRILL, NORIYUKI MINEZAWA, JONATHAN MULLIN,
     TAKESHI NAGATA, SEAN NEDD, HEATHER NETZLOFF, BOSILJKA NJEGIC, RYAN OLSON,
     MIKE PAK, BUU PHAM,
     SPENCER PRUITT, LUKE ROSKOP, JIM SHOEMAKER, LYUDMILA SLIPCHENKO,
     TONY SMITH, SAROM SOK LEANG, JIE SONG, TETSUYA TAKETSUGU, SIMON WEBB,
     PENG XU, SOOHAENG YOO, FEDERICO ZAHARIEV

  ADDITIONAL CODE HAS BEEN PROVIDED BY COLLABORATORS IN OTHER GROUPS:
     IOWA STATE UNIVERSITY:
          JOE IVANIC, AARON WEST, LAIMUTIS BYTAUTAS, KLAUS RUEDENBERG
     UNIVERSITY OF TOKYO: KIMIHIKO HIRAO, TAKAHITO NAKAJIMA,
          TAKAO TSUNEDA, MUNEAKI KAMIYA, SUSUMU YANAGISAWA,
          KIYOSHI YAGI, MAHITO CHIBA, SEIKEN TOKURA, NAOAKI KAWAKAMI
     UNIVERSITY OF AARHUS: FRANK JENSEN
     UNIVERSITY OF IOWA: VISVALDAS KAIRYS, HUI LI
     NATIONAL INST. OF STANDARDS AND TECHNOLOGY: WALT STEVENS, DAVID GARMER
     UNIVERSITY OF PISA: BENEDETTA MENNUCCI, JACOPO TOMASI
     UNIVERSITY OF MEMPHIS: HENRY KURTZ, PRAKASHAN KORAMBATH
     UNIVERSITY OF ALBERTA: TOBY ZENG, MARIUSZ KLOBUKOWSKI
     UNIVERSITY OF NEW ENGLAND: MARK SPACKMAN
     MIE UNIVERSITY: HIROAKI UMEDA
     NAT. INST. OF ADVANCED INDUSTRIAL SCIENCE AND TECHNOLOGY: KAZUO KITAURA
     MICHIGAN STATE UNIVERSITY:
          KAROL KOWALSKI, MARTA WLOCH, JEFFREY GOUR, JESSE LUTZ,
          WEI LI, JUN SHEN, J. EMILIANO DEUSTUA, PIOTR PIECUCH
     UNIVERSITY OF MINNESOTA:
          YINAN SHU
     UNIVERSITY OF SILESIA: MONIKA MUSIAL, STANISLAW KUCHARSKI
     FACULTES UNIVERSITAIRES NOTRE-DAME DE LA PAIX:
          OLIVIER QUINET, BENOIT CHAMPAGNE
     UNIVERSITY OF CALIFORNIA - SANTA BARBARA: BERNARD KIRTMAN
     INSTITUTE FOR MOLECULAR SCIENCE:
          KAZUYA ISHIMURA, MICHIO KATOUDA, AND SHIGERU NAGASE
     UNIVERSITY OF NOTRE DAME: ANNA POMOGAEVA, DAN CHIPMAN
     KYUSHU UNIVERSITY:
          HARUYUKI NAKANO,
          FENG LONG GU, JACEK KORCHOWIEC, MARCIN MAKOWSKI, AND YURIKO AOKI,
          HIROTOSHI MORI AND EISAKU MIYOSHI
     PENNSYLVANIA STATE UNIVERSITY:
          TZVETELIN IORDANOV, CHET SWALINA, JONATHAN SKONE,
          SHARON HAMMES-SCHIFFER
     WASEDA UNIVERSITY:
          MASATO KOBAYASHI, TOMOKO AKAMA, TSUGUKI TOUMA,
          TAKESHI YOSHIKAWA, YASUHIRO IKABATA, JUNJI SEINO,
          YUYA NAKAJIMA, HIROMI NAKAI
     NANJING UNIVERSITY: SHUHUA LI
     UNIVERSITY OF NEBRASKA:
          PEIFENG SU, DEJUN SI, NANDUN THELLAMUREGE, YALI WANG, HUI LI
     UNIVERSITY OF ZURICH: ROBERTO PEVERATI, KIM BALDRIDGE
     N. COPERNICUS UNIVERSITY AND JACKSON STATE UNIVERSITY:
          MARIA BARYSZ
     UNIVERSITY OF COPENHAGEN: Jimmy Kromann, CASPER STEINMANN
     TOKYO INSTITUTE OF TECHNOLOGY: HIROYA NAKATA
     NAGOYA UNIVERSITY: YOSHIO NISHIMOTO, STEPHAN IRLE
     MOSCOW STATE UNIVERSITY: VLADIMIR MIRONOV


 PARALLEL VERSION RUNNING ON        2 PROCESSORS IN        1 NODES.

 EXECUTION OF GAMESS BEGUN Mon Dec  4 10:28:48 2023

            ECHO OF THE FIRST FEW INPUT CARDS -
 INPUT CARD> !Step 4: Calculation using REFDET                                              
 INPUT CARD> $system kdiag=3 mwords=250 memddi=8000 parall=.t. $end                         
 INPUT CARD> $contrl runtyp=energy ispher=1 $end                                            
 INPUT CARD> $contrl icut=9 itol=20 inttyp=rysquad qmttol=1.0d-05 nosym=1 $end              
 INPUT CARD> $scf    npunch=2 conv=1.0d-06 dirscf=.t. diis=.t. soscf=.f. ethrsh=10.0 $end   
 INPUT CARD> $contrl scftyp=mcscf  mult=2 maxit=200 icharg=1 mplevl=2 $end                  
 INPUT CARD> $guess  guess=moread norb=85 purify=.t. $end                                   
 INPUT CARD> $basis  gbasis=cct $end                                                        
 INPUT CARD> $mcscf  cistep=gmcci fullnr=.t. finci=mos                                      
 INPUT CARD>         acurcy=1.d-6 maxit=200 $end                                            
 INPUT CARD> $trans  dirtrf=.t. $end                                                        
 INPUT CARD> $mrmp   mrpt=gmcpt rdvecs=.f. $end                                             
 INPUT CARD> $gmcpt  nmofzc=5 nmodoc=9 nmoact=7 nelact=7 stsym(1)=A                         
 INPUT CARD>         reftyp=ormas nspace=1 mstart(1)=15 mine(1)=7 maxe(1)=7                 
 INPUT CARD>         kstate(1)=1,1,1,1                                                      
 INPUT CARD>         wstate(1)=1,1,1,1                                                      
 INPUT CARD>         iwgt=0 thrwgt=-1.0 krot=.f. kszdoe=.f. knospn=.f.                      
 INPUT CARD>         thrde=-1.0 edshft=0.02 $end                                            
 INPUT CARD> $statpt hssend=.t. $end                                                        
 INPUT CARD> $end                                                                           
 INPUT CARD>--- Semi-canonical MOs --- generated at Mon Dec  4 10:21:58 2023                
 INPUT CARD> $VEC                                                                           
 INPUT CARD> 1  1 9.99999416E-01 7.29973887E-07-3.99440478E-06-4.81875831E-06 1.63484706E-05
 INPUT CARD> 1  2 5.36732169E-06-0.00000000E+00-0.00000000E+00-0.00000000E+00 4.03838885E-11
 INPUT CARD> 1  3-0.00000000E+00-0.00000000E+00 7.96211074E-11 1.14517212E-11-0.00000000E+00
 INPUT CARD> 1  4-1.40849369E-11-0.00000000E+00-0.00000000E+00-2.21867430E-11-0.00000000E+00
 INPUT CARD> 1  5-0.00000000E+00 1.08959399E-07 1.08961145E-07-2.17920544E-07-0.00000000E+00
 INPUT CARD> 1  6-0.00000000E+00-0.00000000E+00 7.02728157E-08 7.02573272E-08-1.40530143E-07
 INPUT CARD> 1  7-0.00000000E+00-0.00000000E+00-0.00000000E+00 8.61676265E-08 8.61266319E-08
 INPUT CARD> 1  8-1.72294258E-07-0.00000000E+00-0.00000000E+00-0.00000000E+00 1.61185015E-07
 INPUT CARD> 1  9-0.00000000E+00-0.00000000E+00-0.00000000E+00-0.00000000E+00-2.16246982E-07
 INPUT CARD> 1 10-0.00000000E+00-0.00000000E+00-0.00000000E+00-0.00000000E+00-2.29650252E-07
 INPUT CARD> 1 11-4.66898658E-07-1.12343498E-06-6.64097518E-08 1.15015824E-07-0.00000000E+00
 INPUT CARD> 1 12-1.90369794E-07 3.29734733E-07-0.00000000E+00 4.67684240E-08-2.10541491E-07
 INPUT CARD> 1 13 1.63773067E-07 2.57316182E-07-0.00000000E+00-0.00000000E+00-2.29652599E-07
 INPUT CARD> 1 14-4.66879487E-07-1.12342770E-06-6.64102175E-08-1.15016523E-07-0.00000000E+00
 INPUT CARD> 1 15-1.90364897E-07-3.29724918E-07-0.00000000E+00 4.67679470E-08-2.10540564E-07
 INPUT CARD> 1 16 1.63772617E-07-2.57315196E-07-0.00000000E+00-0.00000000E+00-2.29639944E-07
 INPUT CARD> 1 17-4.66987046E-07-1.12340031E-06 1.32807841E-07-0.00000000E+00-0.00000000E+00
 INPUT CARD> 1 18 3.80780830E-07-0.00000000E+00-0.00000000E+00-3.39206184E-07 1.75440103E-07
 INPUT CARD> 1 19 1.63766080E-07-0.00000000E+00-0.00000000E+00-0.00000000E+00               
 INPUT CARD> 2  1 2.72313662E-06 1.00010341E+00 1.34746909E-04 1.43214017E-04-4.26044547E-04
 INPUT CARD> 2  2-1.40486446E-04 7.10299112E-11-7.88863849E-11-0.00000000E+00-5.42197215E-11
 INPUT CARD> 2  3-1.27361486E-11-0.00000000E+00-1.68049866E-10-3.19745914E-11-0.00000000E+00
 INPUT CARD> 2  4 2.95588732E-11-0.00000000E+00-0.00000000E+00-0.00000000E+00-0.00000000E+00
 INPUT CARD> 2  5-0.00000000E+00-6.69941071E-07-6.69957164E-07 1.33989824E-06-0.00000000E+00
 INPUT CARD> 2  6-0.00000000E+00-0.00000000E+00-2.23303604E-06-2.23305293E-06 4.46608898E-06
 INPUT CARD> 2  7-0.00000000E+00-0.00000000E+00-0.00000000E+00-1.84537905E-06-1.84515653E-06
 INPUT CARD> 2  8 3.69053558E-06 1.25718203E-11-0.00000000E+00-0.00000000E+00-6.15992627E-06
 INPUT CARD> 2  9-0.00000000E+00-0.00000000E+00-0.00000000E+00-0.00000000E+00 8.26439636E-06
  250000000 WORDS OF MEMORY AVAILABLE

     BASIS OPTIONS
     -------------
     GBASIS=CCT          IGAUSS=       0      POLAR=NONE    
     NDFUNC=       0     NFFUNC=       0     DIFFSP=       F
     NPFUNC=       0      DIFFS=       F     BASNAM=        


     RUN TITLE
     ---------
 AsH3+ calculation at 4 states                                                   

 THE POINT GROUP OF THE MOLECULE IS C1      
 THE ORDER OF THE PRINCIPAL AXIS IS     0

 ATOM      ATOMIC                      COORDINATES (BOHR)
           CHARGE         X                   Y                   Z
 AS         33.0     0.0001728412        0.0000003200        0.0000000000
 H           1.0    -1.3862931669        2.4014548129       -0.0000000002
 H           1.0    -1.3863075024       -2.4014789494        0.0000000002
 H           1.0     2.7597512611        0.0000003465        0.0000000000

          INTERNUCLEAR DISTANCES (ANGS.)
          ------------------------------

                1 AS         2 H          3 H          4 H     

   1 AS      0.0000000    1.4673840 *  1.4673991 *  1.4603061 *
   2 H       1.4673840 *  0.0000000    2.5416033 *  2.5354532 *
   3 H       1.4673991 *  2.5416033 *  0.0000000    2.5354663 *
   4 H       1.4603061 *  2.5354532 *  2.5354663 *  0.0000000  

  * ... LESS THAN  3.000


     ATOMIC BASIS SET
     ----------------
 THE CONTRACTED PRIMITIVE FUNCTIONS HAVE BEEN UNNORMALIZED
 THE CONTRACTED BASIS FUNCTIONS ARE NOW NORMALIZED TO UNITY

  SHELL TYPE  PRIMITIVE        EXPONENT          CONTRACTION COEFFICIENT(S)

 AS        

      1   S       1       8482340.0000000    0.000006800003
      1   S       2       1270151.0000000    0.000052800023
      1   S       3        289057.0000000    0.000277400122
      1   S       4         81879.8500000    0.001170200514
      1   S       5         26716.5600000    0.004242101862
      1   S       6          9647.5840000    0.013655705995
      1   S       7          3764.1190000    0.039339917271
      1   S       8          1561.5660000    0.099929243872
      1   S       9           680.8147000    0.212155593142
      1   S      10           309.2412000    0.336386747683
      1   S      11           145.2574000    0.315512638518
      1   S      12            69.7390500    0.118131251863
      1   S      13            31.7703200    0.008007603516
      1   S      14            15.3917600    0.000329300145
      1   S      15             7.3415260   -0.000152300067
      1   S      16             3.3237160    0.000024700011
      1   S      17             1.4858670   -0.000036600016
      1   S      18             0.2115000   -0.000009400004

      2   S      19       8482340.0000000   -0.000002099844
      2   S      20       1270151.0000000   -0.000016498771
      2   S      21        289057.0000000   -0.000086593551
      2   S      22         81879.8500000   -0.000365272798
      2   S      23         26716.5600000   -0.001330800894
      2   S      24          9647.5840000   -0.004308979105
      2   S      25          3764.1190000   -0.012696354487
      2   S      26          1561.5660000   -0.033613496762
      2   S      27           680.8147000   -0.078941121158
      2   S      28           309.2412000   -0.151434522485
      2   S      29           145.2574000   -0.204186194004
      2   S      30            69.7390500   -0.055732549529
      2   S      31            31.7703200    0.418729516699
      2   S      32            15.3917600    0.575833316987
      2   S      33             7.3415260    0.169671564351
      2   S      34             3.3237160    0.006065748276
      2   S      35             1.4858670    0.001760368903
      2   S      36             0.2115000    0.000231582754

      3   S      37       8482340.0000000    0.000000818623
      3   S      38       1270151.0000000    0.000006548987
      3   S      39        289057.0000000    0.000034484509
      3   S      40         81879.8500000    0.000145612630
      3   S      41         26716.5600000    0.000530877249
      3   S      42          9647.5840000    0.001719313712
      3   S      43          3764.1190000    0.005083344082
      3   S      44          1561.5660000    0.013519053150
      3   S      45           680.8147000    0.032188884481
      3   S      46           309.2412000    0.063284292808
      3   S      47           145.2574000    0.090004159277
      3   S      48            69.7390500    0.026354351138
      3   S      49            31.7703200   -0.251262012099
      3   S      50            15.3917600   -0.520907644337
      3   S      51             7.3415260   -0.056868639208
      3   S      52             3.3237160    0.724870110338
      3   S      53             1.4858670    0.535280112340
      3   S      54             0.2115000   -0.011376408833

      4   S      55       8482340.0000000   -0.000000322182
      4   S      56       1270151.0000000   -0.000002899636
      4   S      57        289057.0000000   -0.000014981451
      4   S      58         81879.8500000   -0.000063147623
      4   S      59         26716.5600000   -0.000230198862
      4   S      60          9647.5840000   -0.000745689664
      4   S      61          3764.1190000   -0.002204850817
      4   S      62          1561.5660000   -0.005870151514
      4   S      63           680.8147000   -0.013996219653
      4   S      64           309.2412000   -0.027636106289
      4   S      65           145.2574000   -0.039550065282
      4   S      66            69.7390500   -0.011844045553
      4   S      67            31.7703200    0.115999445484
      4   S      68            15.3917600    0.253920137348
      4   S      69             7.3415260    0.022886825089
      4   S      70             3.3237160   -0.459365613804
      4   S      71             1.4858670   -0.625893951029
      4   S      72             0.2115000    1.046339525967

      5   S      73             0.4210860    1.000000000000

      6   S      74             0.0889740    1.000000000000

      7   P      75          7423.8610000    0.000459888095
      7   P      76          1759.5170000    0.003982196918
      7   P      77           570.2292000    0.021463244409
      7   P      78           216.5800000    0.082459565479
      7   P      79            90.7342500    0.223884404601
      7   P      80            40.3087900    0.392060251256
      7   P      81            18.5555000    0.354214630915
      7   P      82             8.3965430    0.104861385592
      7   P      83             3.7673670    0.003366312861
      7   P      84             1.6297010    0.001849452126
      7   P      85             0.2225030    0.000229694054

      8   P      86          7423.8610000   -0.000183933273
      8   P      87          1759.5170000   -0.001603623364
      8   P      88           570.2292000   -0.008714684634
      8   P      89           216.5800000   -0.034482567311
      8   P      90            90.7342500   -0.097731519242
      8   P      91            40.3087900   -0.183894927481
      8   P      92            18.5555000   -0.150374370146
      8   P      93             8.3965430    0.201569541112
      8   P      94             3.7673670    0.550783570924
      8   P      95             1.6297010    0.395483295494
      8   P      96             0.2225030   -0.005537068181

      9   P      97          7423.8610000    0.000067575484
      9   P      98          1759.5170000    0.000590735054
      9   P      99           570.2292000    0.003209920148
      9   P     100           216.5800000    0.012757201241
      9   P     101            90.7342500    0.036296841475
      9   P     102            40.3087900    0.069067055648
      9   P     103            18.5555000    0.055084858236
      9   P     104             8.3965430   -0.092951347783
      9   P     105             3.7673670   -0.256062306212
      9   P     106             1.6297010   -0.211535143443
      9   P     107             0.2225030    0.991664800915

     10   P     108             0.5682630    1.000000000000

     11   P     109             0.0804050    1.000000000000

     12   D     110           321.0196000    0.001738948853
     12   D     111            96.2493100    0.014620594557
     12   D     112            36.6449600    0.064875906626
     12   D     113            15.4939600    0.184323725081
     12   D     114             6.8911380    0.331417629149
     12   D     115             3.0548310    0.389664464481
     12   D     116             1.3142410    0.283997092847

     13   D     117             0.5134300    1.000000000000

     14   D     118             0.1877000    1.000000000000

     15   F     119             0.4158000    1.000000000000

 H         

     16   S     120            33.8700000    0.025494863235
     16   S     121             5.0950000    0.190362765893
     16   S     122             1.1590000    0.852162022245

     17   S     123             0.3258000    1.000000000000

     18   S     124             0.1027000    1.000000000000

     19   P     125             1.4070000    1.000000000000

     20   P     126             0.3880000    1.000000000000

     21   D     127             1.0570000    1.000000000000

 H         

     22   S     128            33.8700000    0.025494863235
     22   S     129             5.0950000    0.190362765893
     22   S     130             1.1590000    0.852162022245

     23   S     131             0.3258000    1.000000000000

     24   S     132             0.1027000    1.000000000000

     25   P     133             1.4070000    1.000000000000

     26   P     134             0.3880000    1.000000000000

     27   D     135             1.0570000    1.000000000000

 H         

     28   S     136            33.8700000    0.025494863235
     28   S     137             5.0950000    0.190362765893
     28   S     138             1.1590000    0.852162022245

     29   S     139             0.3258000    1.000000000000

     30   S     140             0.1027000    1.000000000000

     31   P     141             1.4070000    1.000000000000

     32   P     142             0.3880000    1.000000000000

     33   D     143             1.0570000    1.000000000000

 TOTAL NUMBER OF BASIS SET SHELLS             =   33
 NUMBER OF CARTESIAN GAUSSIAN BASIS FUNCTIONS =   94
 NOTE: THIS RUN WILL RESTRICT THE MO VARIATION SPACE TO SPHERICAL HARMONICS.
 THE NUMBER OF ORBITALS KEPT IN THE VARIATIONAL SPACE WILL BE PRINTED LATER.
 NUMBER OF ELECTRONS                          =   35
 CHARGE OF MOLECULE                           =    1
 SPIN MULTIPLICITY                            =    2
 NUMBER OF OCCUPIED ORBITALS (ALPHA)          =   18
 NUMBER OF OCCUPIED ORBITALS (BETA )          =   17
 TOTAL NUMBER OF ATOMS                        =    4
 THE NUCLEAR REPULSION ENERGY IS       36.3851885738

     $CONTRL OPTIONS
     ---------------
 SCFTYP=MCSCF        RUNTYP=ENERGY       EXETYP=RUN     
 MPLEVL=       2     CITYP =NONE         CCTYP =NONE         VBTYP =NONE    
 DFTTYP=NONE         TDDFT =NONE    
 MULT  =       2     ICHARG=       1     NZVAR =       0     COORD =UNIQUE  
 PP    =NONE         RELWFN=NONE         LOCAL =NONE         NUMGRD=       F
 ISPHER=       1     NOSYM =       1     MAXIT =     200     UNITS =ANGS    
 PLTORB=       F     MOLPLT=       F     AIMPAC=       F     FRIEND=        
 NPRINT=       7     IREST =       0     GEOM  =INPUT   
 NORMF =       0     NORMP =       0     ITOL  =      20     ICUT  =       9
 INTTYP=RYSQUAD      GRDTYP=BEST         QMTTOL= 1.0E-05

     $SYSTEM OPTIONS
     ---------------
  REPLICATED MEMORY=   250000000 WORDS (ON EVERY NODE).
 DISTRIBUTED MEMDDI=        8000 MILLION WORDS IN AGGREGATE,
 MEMDDI DISTRIBUTED OVER   2 PROCESSORS IS  4000000000 WORDS/PROCESSOR.
 TOTAL MEMORY REQUESTED ON EACH PROCESSOR=  4250000000 WORDS.
 TIMLIM=      525600.00 MINUTES, OR     365.0 DAYS.
 PARALL= T  BALTYP=  DLB     KDIAG=    3  COREFL= F
 MXSEQ2=     300 MXSEQ3=     150  mem10=         0

          ----------------
          PROPERTIES INPUT
          ----------------

     MOMENTS            FIELD           POTENTIAL          DENSITY
 IEMOM =       1   IEFLD =       0   IEPOT =       0   IEDEN =       0
 WHERE =COMASS     WHERE =NUCLEI     WHERE =NUCLEI     WHERE =NUCLEI  
 OUTPUT=BOTH       OUTPUT=BOTH       OUTPUT=BOTH       OUTPUT=BOTH    
 IEMINT=       0   IEFINT=       0                     IEDINT=       0
                                                       MORB  =       0

     -------------------------------
     INTEGRAL TRANSFORMATION OPTIONS
     -------------------------------
     NWORD  =            0
     CUTOFF = 1.0E-09     MPTRAN =       0
     DIRTRF =       T     AOINTS =DUP     

          ----------------------
          MCSCF INPUT PARAMETERS
          ----------------------
 CONVERGER SELECTION: FOCAS = F  SOSCF = F  FULLNR = T  QUD = F  JACOBI = F
 SECULAR EQUATION METHOD CISTEP = GMCCI   
 --- GENERAL INPUT OPTIONS:
 MAXIT =     200  MICIT =       1  ACURCY= 1.000E-06
 DAMP  =   0.000  CANONC=       T  ENGTOL= 1.000E-10
 EKT   =       F  NPUNCH=       2  NWORD =         0
 REGENERATE CI AFTER CONVERGENCE = NONE    
 DIABATIZATION AFTER CONVERGENCE =        F
 --- INPUT FOR FULLNR CONVERGER:
 METHOD=DM2       FORS  =       F  DROPC =       T
 LINSER=       F  FCORE =       F  NORB  =      94

          ----------------------
          INTEGRAL INPUT OPTIONS
          ----------------------
 NOPK  =       1 NORDER=       0 SCHWRZ=       T

 ------------------------------------------
 MULTIREFERENCE PERTURBATION THEORY CONTROL
 ------------------------------------------
 MRPT=GMCPT    READ CONVERGED MCSCF VECTORS= F


     ------------------------------------------
     THE POINT GROUP IS C1 , NAXIS= 1, ORDER= 1
     ------------------------------------------

 -- VARIATIONAL SPACE WILL BE RESTRICTED TO PURE SPHERICAL HARMONICS ONLY --
 AFTER EXCLUDING CONTAMINANT COMBINATIONS FROM THE CARTESIAN GAUSSIAN BASIS
 SET, THE NUMBER OF SPHERICAL HARMONICS KEPT IN THE VARIATION SPACE IS   85

     DIMENSIONS OF THE SYMMETRY SUBSPACES ARE
 A   =   85

 ..... DONE SETTING UP THE RUN .....
 CPU     0: STEP CPU TIME=     0.18 TOTAL CPU TIME=          0.2 (      0.0 MIN)
 TOTAL WALL CLOCK TIME=          0.6 SECONDS, CPU UTILIZATION IS    32.14%

          ********************
          1 ELECTRON INTEGRALS
          ********************
 TIME TO DO   DIPOLE INTEGRALS=      0.02
 ...... END OF ONE-ELECTRON INTEGRALS ......
 CPU     0: STEP CPU TIME=     0.02 TOTAL CPU TIME=          0.2 (      0.0 MIN)
 TOTAL WALL CLOCK TIME=          0.6 SECONDS, CPU UTILIZATION IS    33.90%

          -------------
          GUESS OPTIONS
          -------------
          GUESS =MOREAD            NORB  =      85          NORDER=       0
          MIX   =       F          PRTMO =       F          PUNMO =       F
          TOLZ  = 1.0E-08          TOLE  = 1.0E-05
          SYMDEN=       F          PURIFY=       T

 INITIAL GUESS ORBITALS GENERATED BY MOREAD   ROUTINE.

 STATISTICS FOR GENERATION OF SYMMETRY ORBITAL -Q- MATRIX
 NUMBER OF CARTESIAN ATOMIC ORBITALS=         94
 NUMBER OF SPHERICAL CONTAMINANTS DROPPED=     9
 NUMBER OF LINEARLY DEPENDENT MOS DROPPED=     0
 TOTAL NUMBER OF MOS IN VARIATION SPACE=      85
 ORBITAL PURIFICATION WILL OCCUR

 SYMMETRIES FOR INITIAL GUESS ORBITALS FOLLOW.   BOTH SET(S).
    18 ORBITALS ARE OCCUPIED (   14 CORE ORBITALS).
     1=A        2=A        3=A        4=A        5=A        6=A        7=A   
     8=A        9=A       10=A       11=A       12=A       13=A       14=A   
    15=A       16=A       17=A       18=A       19=A       20=A       21=A   
    22=A       23=A       24=A       25=A       26=A       27=A       28=A   
    29=A       30=A       31=A       32=A       33=A       34=A       35=A   
    36=A       37=A       38=A       39=A       40=A       41=A       42=A   
    43=A       44=A       45=A       46=A       47=A       48=A       49=A   
    50=A       51=A       52=A       53=A       54=A       55=A       56=A   
    57=A       58=A       59=A       60=A       61=A       62=A       63=A   
    64=A       65=A       66=A       67=A       68=A       69=A       70=A   
    71=A       72=A       73=A       74=A       75=A       76=A       77=A   
    78=A       79=A       80=A       81=A       82=A       83=A       84=A   
    85=A   
 ...... END OF INITIAL ORBITAL SELECTION ......
 CPU     0: STEP CPU TIME=     0.12 TOTAL CPU TIME=          0.3 (      0.0 MIN)
 TOTAL WALL CLOCK TIME=          0.7 SECONDS, CPU UTILIZATION IS    43.84%

                    ----------------------
                    AO INTEGRAL TECHNOLOGY
                    ----------------------
     S,P,L SHELL ROTATED AXIS INTEGRALS, REPROGRAMMED BY
        KAZUYA ISHIMURA (IMS) AND JOSE SIERRA (SYNSTAR).
     S,P,D,L SHELL ROTATED AXIS INTEGRALS PROGRAMMED BY
        KAZUYA ISHIMURA (INSTITUTE FOR MOLECULAR SCIENCE).
     S,P,D,F,G SHELL TO TOTAL QUARTET ANGULAR MOMENTUM SUM 5,
        ERIC PROGRAM BY GRAHAM FLETCHER (ELORET AND NASA ADVANCED
        SUPERCOMPUTING DIVISION, AMES RESEARCH CENTER).
     S,P,D,F,G,L SHELL GENERAL RYS QUADRATURE PROGRAMMED BY
        MICHEL DUPUIS (PACIFIC NORTHWEST NATIONAL LABORATORY).

          --------------------
          2 ELECTRON INTEGRALS
          --------------------

 DIRECT SCF METHOD SKIPS INTEGRAL STORAGE ON DISK.
 DIRECT TRANSFORMATION SKIPS AO INTEGRAL STORAGE ON DISK.
  ...... END OF TWO-ELECTRON INTEGRALS .....
 STEP CPU TIME =     0.03 TOTAL CPU TIME =          0.4 (      0.0 MIN)
 TOTAL WALL CLOCK TIME=          0.8 SECONDS, CPU UTILIZATION IS    46.05%
 DDI: Creating Array [0] - 8836 x 231 = 2041116 words.
 DDI: Creating Array [1] - 64 x 4851 = 310464 words.
 DDI: Creating Array [2] - 231 x 231 = 53361 words.
 DDI: Creating Array [3] - 4465 x 231 = 1031415 words.

          -----------------
          MCSCF CALCULATION
          -----------------

 ----- NUCLEAR ENERGY ----- =        36.3851885738

     -------------------------------------------------
     GMC-PT/GMC-QDPT or general MCSCF input parameters
     -------------------------------------------------
 # of frozen core orbs. =         5 ->         0
 # of doubly occ. orbs. =         9
 # of active      orbs. =         7
 # of virtual     orbs. =        64
 # of active electrons  =         7
 # of states in CI      =         4
 Highest state in CI    =         4
 kstate =  1 1 1 1
 avecoe =  0.250 0.250 0.250 0.250
 State symmetry           = A           
 Assigned symmetry number = 1

 <<<Act. MO sym.: 1111111

 <<<Division of 1-ext.:  0 0
 <<<Division of 2-ext.:  0 1

 *** Reference space

 Reference type: ORMAS (= Occupation restricted multiple active space)
 # of orbitals          =  7
 # of minimum electrons =  7
 # of maximum electrons =  7
 State symmetry    =    1 (input)
 2*Sz              =    1 (input)
 Spin multiplicity =    2 (input)
 Dimension of reference space =      1225  (from      3432 walks)

 Dimension of reference space =      1225  (from      1225 walks)

 <<<Ionized spaces for Ref-CI:
      0:         1225 /   -1-0:         1960 /  0-1-0:         2891

 EVALUATING EXCHANGE INTEGRALS FOR DIRECT INTEGRAL TRANSFORMATION
 SCHWARZ INEQUALITY OVERHEAD:      4465 INTEGRALS, T=        0.21

     --------------------------------------------
     PARTIAL TWO ELECTRON INTEGRAL TRANSFORMATION
     --------------------------------------------

 NUMBER OF CORE MOLECULAR ORBITALS     =   14
 NUMBER OF OCCUPIED MOLECULAR ORBITALS =   21
 TOTAL NUMBER OF MOLECULAR ORBITALS    =   85
 TOTAL NUMBER OF ATOMIC ORBITALS       =   94
 THRESHOLD FOR KEEPING TRANSFORMED 2E- INTEGRALS = 1.000E-09

 -------------------------------     ------------------------------
 DISTRIBUTED DATA TRANSFORMATION     PROGRAM WRITTEN BY G. FLETCHER
 -------------------------------     ------------------------------

 THE DISTRIBUTED MEMORY REQUIRED FOR THIS STEP IS MEMDDI=         4 MWORDS
 CREATING DISTRIBUTED STORAGE FOR [VIR OCC|VIR OCC] INTEGRALS
 CREATING DISTRIBUTED STORAGE FOR [VIR OCC|OCC OCC] INTEGRALS
 CREATING DISTRIBUTED STORAGE FOR [OCC OCC|OCC OCC] INTEGRALS
 CREATING DISTRIBUTED STORAGE FOR [VIR VIR|OCC OCC] INTEGRALS
 FOR    2 PROCESSORS, THE REPLICATED MEMORY NEEDED IS      615709 WORDS.
 SCHWARZ INEQUALITY OVERHEAD:      4465 INTEGRALS, T=        0.20

      DIRECT 4-INDEX TRANSFORMATION 
      SCHWARZ INEQUALITY TEST SKIPPED       1078 INTEGRAL BLOCKS
 ----- FROZEN CORE ENERGY =     -2258.5584643430
 ... END OF INTEGRAL TRANSFORMATION ...
 CPU     0: STEP CPU TIME=    10.40 TOTAL CPU TIME=         10.8 (      0.2 MIN)
 TOTAL WALL CLOCK TIME=         11.3 SECONDS, CPU UTILIZATION IS    94.96%

     --------------------------------     -----------------------------
     MCHF NEWTON-RAPHSON OPTIMIZATION     CODE WRITTEN BY MICHEL DUPUIS
     --------------------------------     -----------------------------
     PARALLEL VERSION WRITTEN BY G. FLETCHER (ELORET)
     NASA ADVANCED SUPERCOMPUTING DIVISION, AMES RESEARCH CENTER

 NUMBER OF INDEPENDENT ORBITAL ROTATION PARAMETERS =   849
 ..... DONE SOLVING NEWTON-RAPHSON EQUATIONS .....
 CPU     0: STEP CPU TIME=     0.44 TOTAL CPU TIME=         11.2 (      0.2 MIN)
 TOTAL WALL CLOCK TIME=         12.1 SECONDS, CPU UTILIZATION IS    92.71%
 ..... DONE WITH NTN-RPH ORBITAL ROTATIONS ..... 
 CPU     0: STEP CPU TIME=     0.00 TOTAL CPU TIME=         11.2 (      0.2 MIN)
 TOTAL WALL CLOCK TIME=         12.1 SECONDS, CPU UTILIZATION IS    92.71%
 MAXIMUM MEMORY USED BY NTN-RPH CODE WAS    197978 WORDS.

 ITER     TOTAL ENERGY      DEL(E)  LAGRANGIAN ASYMMETRY   SQCDF  MICIT   DAMP
   1    -2235.516955944 -0.516955944  0.000977   60   15 7.261E-06  1   0.0000
   2    -2235.516958709 -0.000002765  0.000080   60   19 2.138E-06  1   0.0000
   3    -2235.516958935 -0.000000226  0.000050   60   19 9.520E-07  1   0.0000
   4    -2235.516959029 -0.000000095  0.000032   60   19 4.437E-07  1   0.0000
   5    -2235.516959072 -0.000000042  0.000021   60   19 2.070E-07  1   0.0000
   6    -2235.516959091 -0.000000019  0.000014   60   19 9.582E-08  1   0.0000
   7    -2235.516959099 -0.000000009  0.000009   60   19 4.413E-08  1   0.0000
   8    -2235.516959103 -0.000000004  0.000006   60   19 2.018E-08  1   0.0000
   9    -2235.516959105 -0.000000002  0.000004   60   19 9.273E-09  1   0.0000
  10    -2235.516959106 -0.000000001  0.000003   60   19 4.216E-09  1   0.0000
  11    -2235.516959106 -0.000000000  0.000002   60   19 1.915E-09  1   0.0000
  12    -2235.516959107 -0.000000000  0.000001   60   19 8.760E-10  1   0.0000
  13    -2235.516959107 -0.000000000  0.000001   60   19 4.002E-10  1   0.0000

          --------------------
          LAGRANGIAN CONVERGED
          --------------------

 FINAL MCSCF ENERGY IS    -2235.5169591066 AFTER  13 ITERATIONS

 -MCCI- BASED ON OPTIMIZED ORBITALS
 ----------------------------------

 PLEASE NOTE: IF THE ACTIVE ORBITALS ARE CANONICALIZED BELOW,
 THE FOLLOWING CI EXPANSION COEFFICIENTS AND THE DENSITY DO NOT
 CORRESPOND TO THE PRINTED ORBITALS.  THE PRINTED EXPANSIONS MATCH
 THE ORBITALS USED DURING THE LAST ITERATION.  IF YOU WISH TO SEE
 CI EXPANSIONS BASED ON THE CANONICAL (OR NATURAL) ORBITALS, YOU
 MUST RUN A CI CALCULATION WITH THAT ORBITAL CHOICE READ IN $VEC.

 Averaged energy =   -2235.516959107

 State #    1  Energy =   -2235.693416246  S =  0.500

      Det      Coef    Occupancy (Ignoring core)
      ---      ----    --------- --------- -----
        1   -0.976693  11110001110000
      107    0.073562  11101000111000
      143   -0.061049  11011001100100
      179   -0.060565  10111001010100
      393   -0.059001  10110101010010
      717   -0.059255  11010011100001

 State #    2  Energy =   -2235.481694846  S =  0.500

      Det      Coef    Occupancy (Ignoring core)
      ---      ----    --------- --------- -----
        2   -0.951715  11101001110000
      106    0.172531  11110000111000
      110    0.057385  01111000111000
      156   -0.082017  11100011100100
      181    0.079755  11100101010100
      212   -0.064057  11101000110100
      387    0.076241  11101001010010
      396   -0.061311  10101101010010
      702   -0.079279  11101001100001
      706    0.050052  11100101100001
      720   -0.061153  11001011100001

 State #    3  Energy =   -2235.446815768  S =  0.500

      Det      Coef    Occupancy (Ignoring core)
      ---      ----    --------- --------- -----
       16   -0.118482  11100011110000
       36    0.950254  11110001101000
       39    0.101795  10111001101000
       52    0.092348  11010011101000
       73    0.102146  11011001011000
      108    0.056214  11011000111000
      112   -0.050755  11010100111000
      123    0.050875  10110010111000
      142   -0.120465  11101001100100
      249    0.069143  10111001001100
      463    0.052800  10110101001010

 State #    4  Energy =   -2235.445909567  S =  0.500

      Det      Coef    Occupancy (Ignoring core)
      ---      ----    --------- --------- -----
        6    0.116835  11100101110000
       38    0.102358  11011001101000
       71    0.950379  11110001011000
       74   -0.101848  10111001011000
       78   -0.092368  10110101011000
      109    0.055842  10111000111000
      113    0.051150  10110100111000
      122    0.051006  11010010111000
      177   -0.119859  11101001010100
      248   -0.069519  11011001001100
      822   -0.053007  11010011001001

 DENSITY MATRIX OVER ACTIVE MO-S

             1           2           3           4           5

    1    1.9718957
    2    0.0005746   1.7205335
    3   -0.0000094  -0.0000071   1.7201601
    4   -0.0000000   0.0000000   0.0000000   1.2381379
    5    0.0032525  -0.0009050   0.0000147  -0.0000000   0.2904895
    6   -0.0006673   0.0002204   0.0000276   0.0000000  -0.0025759
    7    0.0000117   0.0000253   0.0015618  -0.0000000   0.0000451

             6           7

    6    0.0291894
    7    0.0000083   0.0295938

 FORMING THE "STANDARD FOCK OPERATOR" IN DIRECT AO INTEGRAL MODE...
 ONLY THE   14 CORE AND   64 VIRTUAL ORBITALS WILL BE CANONICALIZED

          ----------------------
          MCSCF NATURAL ORBITALS
          ----------------------

                      1          2          3          4          5
                 -432.8954   -56.6209   -50.4654   -50.4653   -50.4653
                     A          A          A          A          A   
    1  AS 1  S    0.999999   0.000003   0.000000  -0.000000  -0.000000
    2  AS 1  S    0.000001   1.000103   0.000000  -0.000000   0.000000
    3  AS 1  S   -0.000004   0.000135   0.000000  -0.000000  -0.000003
    4  AS 1  S   -0.000005   0.000143   0.000000  -0.000000  -0.000004
    5  AS 1  S    0.000016  -0.000426   0.000000   0.000000   0.000000
    6  AS 1  S    0.000005  -0.000140   0.000000  -0.000000  -0.000001
    7  AS 1  X   -0.000000  -0.000001   0.000000   0.000919   1.000024
    8  AS 1  Y    0.000000  -0.000000  -0.000000   1.000025  -0.000919
    9  AS 1  Z    0.000000  -0.000000   1.000026   0.000000  -0.000000
   10  AS 1  X    0.000000   0.000000  -0.000000  -0.000000  -0.000004
   11  AS 1  Y    0.000000   0.000000   0.000000  -0.000002   0.000000
   12  AS 1  Z    0.000000  -0.000000   0.000001  -0.000000   0.000000
   13  AS 1  X    0.000000  -0.000000  -0.000000  -0.000000  -0.000091
   14  AS 1  Y    0.000000  -0.000000   0.000000  -0.000087   0.000000
   15  AS 1  Z    0.000000  -0.000000  -0.000002   0.000000   0.000000
   16  AS 1  X    0.000000  -0.000000   0.000000  -0.000000  -0.000501
   17  AS 1  Y    0.000000  -0.000000  -0.000000  -0.000500   0.000000
   18  AS 1  Z    0.000000  -0.000000  -0.000447   0.000000   0.000000
   19  AS 1  X    0.000000  -0.000000   0.000000  -0.000000  -0.000090
   20  AS 1  Y    0.000000  -0.000000   0.000000  -0.000090   0.000000
   21  AS 1  Z    0.000000  -0.000000  -0.000069   0.000000   0.000000
   22  AS 1 XX    0.000000  -0.000001   0.000000   0.000000   0.000002
   23  AS 1 YY    0.000000  -0.000000   0.000000  -0.000000  -0.000002
   24  AS 1 ZZ   -0.000000   0.000001   0.000000  -0.000000  -0.000000
   25  AS 1 XY    0.000000   0.000000   0.000000  -0.000002   0.000000
   26  AS 1 XZ    0.000000  -0.000000   0.000000  -0.000000   0.000000
   27  AS 1 YZ    0.000000  -0.000000   0.000000   0.000000   0.000000
   28  AS 1 XX    0.000000  -0.000002   0.000000  -0.000000  -0.000057
   29  AS 1 YY    0.000000  -0.000002   0.000000   0.000000   0.000056
   30  AS 1 ZZ   -0.000000   0.000004   0.000000   0.000000   0.000001
   31  AS 1 XY    0.000000   0.000000  -0.000000   0.000064  -0.000000
   32  AS 1 XZ    0.000000  -0.000000  -0.000000   0.000000   0.000000
   33  AS 1 YZ    0.000000  -0.000000  -0.000000   0.000000  -0.000000
   34  AS 1 XX    0.000000  -0.000002  -0.000000  -0.000000  -0.000017
   35  AS 1 YY    0.000000  -0.000002   0.000000   0.000000   0.000016
   36  AS 1 ZZ   -0.000000   0.000004   0.000000   0.000000   0.000001
   37  AS 1 XY    0.000000   0.000000  -0.000000   0.000018  -0.000000
   38  AS 1 XZ    0.000000  -0.000000  -0.000000   0.000000   0.000000
   39  AS 1 YZ   -0.000000  -0.000000  -0.000000   0.000000   0.000000
   40  AS 1 XXX   0.000000  -0.000006   0.000000  -0.000000  -0.000014
   41  AS 1 YYY  -0.000000  -0.000000   0.000000  -0.000013   0.000000
   42  AS 1 ZZZ   0.000000  -0.000000  -0.000000   0.000000   0.000000
   43  AS 1 XXY   0.000000  -0.000000   0.000000  -0.000006   0.000000
   44  AS 1 XXZ   0.000000  -0.000000   0.000000   0.000000   0.000000
   45  AS 1 YYX  -0.000000   0.000008   0.000000  -0.000000  -0.000005
   46  AS 1 YYZ   0.000000  -0.000000   0.000000  -0.000000   0.000000
   47  AS 1 ZZX  -0.000000   0.000000   0.000000   0.000000   0.000024
   48  AS 1 ZZY   0.000000   0.000000  -0.000000   0.000023  -0.000000
   49  AS 1 XYZ   0.000000   0.000000   0.000000   0.000000  -0.000000
   50  H  2  S   -0.000000   0.000006   0.000000  -0.000012   0.000007
   51  H  2  S   -0.000000   0.000011  -0.000000   0.000059  -0.000034
   52  H  2  S   -0.000001   0.000029  -0.000000   0.000041  -0.000023
   53  H  2  X   -0.000000   0.000002   0.000000   0.000007  -0.000005
   54  H  2  Y    0.000000  -0.000003   0.000000  -0.000013   0.000007
   55  H  2  Z    0.000000  -0.000000   0.000001  -0.000000   0.000000
   56  H  2  X   -0.000000   0.000004  -0.000000   0.000030  -0.000019
   57  H  2  Y    0.000000  -0.000007   0.000000  -0.000053   0.000030
   58  H  2  Z    0.000000   0.000000  -0.000005   0.000000  -0.000000
   59  H  2 XX    0.000000  -0.000001   0.000000  -0.000002   0.000005
   60  H  2 YY   -0.000000   0.000005  -0.000000   0.000021  -0.000016
   61  H  2 ZZ    0.000000  -0.000004   0.000000  -0.000019   0.000011
   62  H  2 XY    0.000000  -0.000006   0.000000  -0.000028   0.000014
   63  H  2 XZ    0.000000   0.000000   0.000003   0.000000  -0.000000
   64  H  2 YZ   -0.000000  -0.000000  -0.000005   0.000000   0.000000
   65  H  3  S   -0.000000   0.000006  -0.000000   0.000012   0.000007
   66  H  3  S   -0.000000   0.000011   0.000000  -0.000059  -0.000034
   67  H  3  S   -0.000001   0.000029   0.000000  -0.000041  -0.000023
   68  H  3  X   -0.000000   0.000002   0.000000  -0.000007  -0.000005
   69  H  3  Y   -0.000000   0.000003   0.000000  -0.000013  -0.000007
   70  H  3  Z    0.000000   0.000000   0.000001  -0.000000  -0.000000
   71  H  3  X   -0.000000   0.000004   0.000000  -0.000030  -0.000019
   72  H  3  Y   -0.000000   0.000007   0.000000  -0.000053  -0.000030
   73  H  3  Z   -0.000000  -0.000000  -0.000005   0.000000   0.000000
   74  H  3 XX    0.000000  -0.000001   0.000000   0.000002   0.000005
   75  H  3 YY   -0.000000   0.000005   0.000000  -0.000021  -0.000016
   76  H  3 ZZ    0.000000  -0.000004  -0.000000   0.000019   0.000011
   77  H  3 XY   -0.000000   0.000006   0.000000  -0.000028  -0.000014
   78  H  3 XZ    0.000000  -0.000000   0.000003   0.000000   0.000000
   79  H  3 YZ   -0.000000  -0.000000   0.000005  -0.000000   0.000000
   80  H  4  S   -0.000000   0.000006   0.000000  -0.000000  -0.000014
   81  H  4  S   -0.000000   0.000012   0.000000   0.000000   0.000074
   82  H  4  S   -0.000001   0.000030  -0.000000   0.000000   0.000048
   83  H  4  X    0.000000  -0.000004   0.000000  -0.000000  -0.000017
   84  H  4  Y    0.000000  -0.000000   0.000000  -0.000001   0.000000
   85  H  4  Z    0.000000  -0.000000   0.000001   0.000000   0.000000
   86  H  4  X    0.000000  -0.000009  -0.000000  -0.000000  -0.000074
   87  H  4  Y   -0.000000  -0.000000   0.000000  -0.000002   0.000000
   88  H  4  Z    0.000000  -0.000000  -0.000005  -0.000000   0.000000
   89  H  4 XX   -0.000000   0.000008   0.000000   0.000000   0.000042
   90  H  4 YY    0.000000  -0.000004   0.000000  -0.000000  -0.000020
   91  H  4 ZZ    0.000000  -0.000004   0.000000  -0.000000  -0.000022
   92  H  4 XY    0.000000  -0.000000   0.000000  -0.000004   0.000000
   93  H  4 XZ    0.000000  -0.000000  -0.000006   0.000000   0.000000
   94  H  4 YZ    0.000000   0.000000  -0.000000   0.000000   0.000000

                      6          7          8          9         10
                   -8.3450    -6.1998    -6.1997    -6.1964    -2.4338
                     A          A          A          A          A   
    1  AS 1  S   -0.000085  -0.000002  -0.000000   0.000000   0.000002
    2  AS 1  S   -0.000609  -0.000011  -0.000000   0.000000   0.000016
    3  AS 1  S    0.975257  -0.000078  -0.000000   0.000000   0.000043
    4  AS 1  S   -0.001924  -0.000043  -0.000000   0.000000   0.000003
    5  AS 1  S    0.036270   0.000018   0.000000   0.000000  -0.000061
    6  AS 1  S    0.004132   0.000011   0.000000   0.000000  -0.000040
    7  AS 1  X   -0.000001  -0.000105  -0.000000   0.000000   0.000215
    8  AS 1  Y   -0.000000   0.000000  -0.000106   0.000000  -0.000000
    9  AS 1  Z   -0.000000   0.000000  -0.000000   0.000031   0.000000
   10  AS 1  X    0.000029   0.974395   0.000884  -0.000000   0.001014
   11  AS 1  Y    0.000000  -0.000884   0.974390  -0.000000  -0.000001
   12  AS 1  Z   -0.000000   0.000000   0.000000   0.975679   0.000000
   13  AS 1  X   -0.000009  -0.000996  -0.000001  -0.000000   0.004662
   14  AS 1  Y   -0.000000   0.000001  -0.001004   0.000000  -0.000004
   15  AS 1  Z   -0.000000   0.000000  -0.000000   0.000431   0.000000
   16  AS 1  X    0.000007   0.047788   0.000043  -0.000000  -0.001866
   17  AS 1  Y    0.000000  -0.000043   0.047803  -0.000000   0.000002
   18  AS 1  Z   -0.000000   0.000000   0.000000   0.046644  -0.000000
   19  AS 1  X    0.000003   0.002067   0.000002   0.000000  -0.002560
   20  AS 1  Y    0.000000  -0.000002   0.002069   0.000000   0.000002
   21  AS 1  Z   -0.000000  -0.000000   0.000000   0.001652   0.000000
   22  AS 1 XX    0.000328   0.000630   0.000001   0.000000   0.838927
   23  AS 1 YY    0.000320  -0.000615  -0.000001   0.000000  -0.835408
   24  AS 1 ZZ   -0.000647  -0.000015  -0.000000   0.000000  -0.003519
   25  AS 1 XY   -0.000000   0.000001  -0.000686   0.000000   0.000885
   26  AS 1 XZ   -0.000000   0.000000   0.000000   0.000012   0.000000
   27  AS 1 YZ    0.000000   0.000000  -0.000000   0.000000   0.000000
   28  AS 1 XX    0.000049  -0.000330  -0.000000  -0.000000   0.073455
   29  AS 1 YY    0.000052   0.000326   0.000000   0.000000  -0.073142
   30  AS 1 ZZ   -0.000101   0.000004   0.000000   0.000000  -0.000313
   31  AS 1 XY    0.000000  -0.000000   0.000385  -0.000000   0.000077
   32  AS 1 XZ   -0.000000   0.000000  -0.000000   0.000007   0.000000
   33  AS 1 YZ   -0.000000  -0.000000  -0.000000   0.000000   0.000000
   34  AS 1 XX   -0.000016  -0.000215  -0.000000   0.000000   0.000472
   35  AS 1 YY   -0.000015   0.000213   0.000000   0.000000  -0.000453
   36  AS 1 ZZ    0.000031   0.000002   0.000000   0.000000  -0.000019
   37  AS 1 XY    0.000000  -0.000000   0.000247  -0.000000   0.000000
   38  AS 1 XZ   -0.000000   0.000000   0.000000  -0.000003   0.000000
   39  AS 1 YZ   -0.000000   0.000000   0.000000  -0.000000   0.000000
   40  AS 1 XXX   0.000049   0.000052   0.000000  -0.000000   0.000468
   41  AS 1 YYY  -0.000000  -0.000000   0.000050   0.000000  -0.000000
   42  AS 1 ZZZ  -0.000000   0.000000   0.000000  -0.000215   0.000000
   43  AS 1 XXY  -0.000000  -0.000000   0.000027   0.000000  -0.000000
   44  AS 1 XXZ  -0.000000  -0.000000  -0.000000   0.000146  -0.000000
   45  AS 1 YYX  -0.000066   0.000027   0.000000  -0.000000   0.000167
   46  AS 1 YYZ  -0.000000  -0.000000  -0.000000   0.000143   0.000000
   47  AS 1 ZZX   0.000001  -0.000097  -0.000000   0.000000  -0.000794
   48  AS 1 ZZY   0.000000   0.000000  -0.000095  -0.000000   0.000001
   49  AS 1 XYZ   0.000000  -0.000000  -0.000000  -0.000000  -0.000000
   50  H  2  S    0.000002  -0.000214   0.000369   0.000000  -0.002749
   51  H  2  S    0.000331  -0.000985   0.001720  -0.000000  -0.001358
   52  H  2  S   -0.000675   0.000346  -0.000601  -0.000000  -0.000856
   53  H  2  X   -0.000004   0.000010   0.000024   0.000000  -0.000733
   54  H  2  Y    0.000008   0.000024  -0.000018  -0.000000   0.000499
   55  H  2  Z   -0.000000  -0.000000  -0.000000   0.000011   0.000000
   56  H  2  X    0.000005  -0.000043   0.000265  -0.000000  -0.000727
   57  H  2  Y   -0.000009   0.000260  -0.000350   0.000000  -0.000486
   58  H  2  Z    0.000000  -0.000000   0.000000   0.000124  -0.000000
   59  H  2 XX   -0.000004  -0.000001  -0.000051   0.000000  -0.000121
   60  H  2 YY    0.000024  -0.000043   0.000129  -0.000000  -0.000116
   61  H  2 ZZ   -0.000020   0.000044  -0.000077   0.000000   0.000237
   62  H  2 XY   -0.000028   0.000104  -0.000145   0.000000   0.000526
   63  H  2 XZ    0.000000  -0.000000   0.000000  -0.000018   0.000000
   64  H  2 YZ   -0.000000   0.000000  -0.000000   0.000031   0.000000
   65  H  3  S    0.000002  -0.000213  -0.000369  -0.000000  -0.002740
   66  H  3  S    0.000331  -0.000982  -0.001722   0.000000  -0.001354
   67  H  3  S   -0.000675   0.000345   0.000601   0.000000  -0.000853
   68  H  3  X   -0.000004   0.000010  -0.000024  -0.000000  -0.000732
   69  H  3  Y   -0.000008  -0.000024  -0.000018  -0.000000  -0.000497
   70  H  3  Z    0.000000  -0.000000  -0.000000   0.000011   0.000000
   71  H  3  X    0.000005  -0.000043  -0.000265   0.000000  -0.000728
   72  H  3  Y    0.000009  -0.000259  -0.000350   0.000000   0.000486
   73  H  3  Z   -0.000000   0.000000   0.000000   0.000124   0.000000
   74  H  3 XX   -0.000004  -0.000001   0.000051  -0.000000  -0.000122
   75  H  3 YY    0.000024  -0.000043  -0.000129   0.000000  -0.000115
   76  H  3 ZZ   -0.000020   0.000044   0.000077  -0.000000   0.000237
   77  H  3 XY    0.000028  -0.000103  -0.000145   0.000000  -0.000525
   78  H  3 XZ   -0.000000   0.000000   0.000000  -0.000018  -0.000000
   79  H  3 YZ   -0.000000   0.000000   0.000000  -0.000031   0.000000
   80  H  4  S    0.000002   0.000436   0.000000  -0.000000   0.005626
   81  H  4  S    0.000339   0.002011   0.000002   0.000000   0.002630
   82  H  4  S   -0.000682  -0.000702  -0.000001  -0.000000   0.001714
   83  H  4  X    0.000004  -0.000048  -0.000000   0.000000  -0.001658
   84  H  4  Y    0.000000  -0.000000   0.000024  -0.000000   0.000000
   85  H  4  Z   -0.000000  -0.000000  -0.000000   0.000011  -0.000000
   86  H  4  X   -0.000012  -0.000503  -0.000000  -0.000000   0.000152
   87  H  4  Y    0.000000  -0.000000   0.000107   0.000000   0.000001
   88  H  4  Z   -0.000000  -0.000000   0.000000   0.000125  -0.000000
   89  H  4 XX    0.000043   0.000241   0.000000   0.000000   0.001058
   90  H  4 YY   -0.000020  -0.000142  -0.000000   0.000000  -0.000564
   91  H  4 ZZ   -0.000023  -0.000098  -0.000000   0.000000  -0.000494
   92  H  4 XY    0.000000  -0.000000   0.000036   0.000000  -0.000000
   93  H  4 XZ   -0.000000  -0.000000   0.000000   0.000035   0.000000
   94  H  4 YZ   -0.000000   0.000000  -0.000000   0.000000  -0.000000

                     11         12         13         14         15
                   -2.4337    -2.4296    -2.4287    -2.4287     1.9719
                     A          A          A          A          A   
    1  AS 1  S   -0.000000  -0.000096   0.000000   0.000000   0.000443
    2  AS 1  S   -0.000000  -0.000644   0.000000   0.000000   0.002664
    3  AS 1  S   -0.000000  -0.001509   0.000000   0.000000   0.004365
    4  AS 1  S   -0.000000  -0.003269   0.000000   0.000000   0.556857
    5  AS 1  S    0.000000   0.000597  -0.000000  -0.000000   0.235462
    6  AS 1  S    0.000000   0.003474   0.000000   0.000000   0.130888
    7  AS 1  X   -0.000000  -0.000001  -0.000000  -0.000000  -0.000036
    8  AS 1  Y   -0.000218  -0.000000   0.000000  -0.000000  -0.000000
    9  AS 1  Z    0.000000   0.000000  -0.000000  -0.000003  -0.000000
   10  AS 1  X   -0.000001   0.000007  -0.000000  -0.000000  -0.000466
   11  AS 1  Y   -0.001095   0.000000   0.000000  -0.000000  -0.000001
   12  AS 1  Z    0.000000   0.000000  -0.000000  -0.000039   0.000000
   13  AS 1  X   -0.000004  -0.000030  -0.000000  -0.000000   0.000533
   14  AS 1  Y   -0.004666  -0.000000   0.000000  -0.000000   0.000001
   15  AS 1  Z    0.000000   0.000000   0.000000   0.000001  -0.000000
   16  AS 1  X    0.000002  -0.000005   0.000000  -0.000000   0.000542
   17  AS 1  Y    0.001916  -0.000000  -0.000000   0.000000   0.000001
   18  AS 1  Z   -0.000000   0.000000   0.000000   0.000040  -0.000000
   19  AS 1  X    0.000002  -0.000010  -0.000000  -0.000000  -0.000030
   20  AS 1  Y    0.002563  -0.000000   0.000000  -0.000000  -0.000000
   21  AS 1  Z    0.000000   0.000000   0.000000   0.000010  -0.000000
   22  AS 1 XX   -0.000771  -0.480973  -0.000000  -0.000000  -0.014545
   23  AS 1 YY    0.000761  -0.487110   0.000000  -0.000000  -0.014096
   24  AS 1 ZZ    0.000010   0.968083  -0.000000   0.000000   0.028641
   25  AS 1 XY    0.966700  -0.000007  -0.000000  -0.000000   0.000000
   26  AS 1 XZ    0.000000  -0.000000   0.000857   0.968374  -0.000000
   27  AS 1 YZ    0.000000   0.000000   0.968383  -0.000857  -0.000000
   28  AS 1 XX   -0.000068  -0.040858  -0.000000  -0.000000   0.008606
   29  AS 1 YY    0.000067  -0.041364   0.000000   0.000000   0.008306
   30  AS 1 ZZ    0.000001   0.082222  -0.000000  -0.000000  -0.016912
   31  AS 1 XY    0.084640  -0.000001  -0.000000   0.000000  -0.000000
   32  AS 1 XZ    0.000000  -0.000000   0.000073   0.082219  -0.000000
   33  AS 1 YZ    0.000000   0.000000   0.082206  -0.000073  -0.000000
   34  AS 1 XX   -0.000000  -0.000693  -0.000000  -0.000000   0.004365
   35  AS 1 YY    0.000000  -0.000651   0.000000   0.000000   0.004370
   36  AS 1 ZZ    0.000000   0.001344  -0.000000  -0.000000  -0.008735
   37  AS 1 XY    0.000508   0.000000  -0.000000   0.000000   0.000000
   38  AS 1 XZ   -0.000000   0.000000   0.000001   0.000963  -0.000000
   39  AS 1 YZ   -0.000000   0.000000   0.000961  -0.000001   0.000000
   40  AS 1 XXX  -0.000000  -0.001027   0.000000   0.000000   0.013504
   41  AS 1 YYY  -0.000456  -0.000000   0.000000  -0.000000   0.000000
   42  AS 1 ZZZ  -0.000000   0.000000  -0.000000  -0.000009  -0.000000
   43  AS 1 XXY  -0.000171  -0.000000   0.000000  -0.000000   0.000000
   44  AS 1 XXZ  -0.000000   0.000000   0.000000   0.000253  -0.000000
   45  AS 1 YYX  -0.000000   0.001359  -0.000000  -0.000000  -0.018055
   46  AS 1 YYZ   0.000000   0.000000  -0.000000  -0.000241  -0.000000
   47  AS 1 ZZX   0.000001   0.000019   0.000000   0.000000  -0.000062
   48  AS 1 ZZY   0.000782   0.000000  -0.000000   0.000000  -0.000000
   49  AS 1 XYZ   0.000000  -0.000000  -0.000261   0.000000  -0.000000
   50  H  2  S   -0.004753  -0.002798   0.000000  -0.000000   0.074154
   51  H  2  S   -0.002314  -0.000925  -0.000000   0.000000   0.107244
   52  H  2  S   -0.001491  -0.000360  -0.000000   0.000000   0.010141
   53  H  2  X   -0.000498  -0.000441   0.000000   0.000000   0.003474
   54  H  2  Y    0.001308   0.000762  -0.000000   0.000000  -0.006013
   55  H  2  Z    0.000000  -0.000000   0.000379  -0.000219   0.000000
   56  H  2  X    0.000501   0.000055  -0.000000   0.000000   0.006357
   57  H  2  Y    0.000161  -0.000105   0.000000  -0.000000  -0.010973
   58  H  2  Z   -0.000000  -0.000000   0.000993  -0.000571  -0.000000
   59  H  2 XX    0.000252  -0.000017   0.000000  -0.000000   0.000022
   60  H  2 YY   -0.000665  -0.000383  -0.000000   0.000000   0.001555
   61  H  2 ZZ    0.000413   0.000399   0.000000  -0.000000  -0.001577
   62  H  2 XY    0.000603   0.000368   0.000000  -0.000000  -0.001549
   63  H  2 XZ   -0.000000  -0.000000   0.000224  -0.000026  -0.000000
   64  H  2 YZ    0.000000   0.000000  -0.000286   0.000224   0.000000
   65  H  3  S    0.004758  -0.002798   0.000000   0.000000   0.074152
   66  H  3  S    0.002316  -0.000925  -0.000000  -0.000000   0.107241
   67  H  3  S    0.001493  -0.000360  -0.000000  -0.000000   0.010141
   68  H  3  X    0.000499  -0.000441   0.000000   0.000000   0.003474
   69  H  3  Y    0.001309  -0.000762  -0.000000   0.000000   0.006013
   70  H  3  Z    0.000000   0.000000  -0.000379  -0.000218  -0.000000
   71  H  3  X   -0.000500   0.000055  -0.000000  -0.000000   0.006357
   72  H  3  Y    0.000160   0.000105  -0.000000  -0.000000   0.010972
   73  H  3  Z   -0.000000   0.000000  -0.000994  -0.000569   0.000000
   74  H  3 XX   -0.000251  -0.000017  -0.000000   0.000000   0.000022
   75  H  3 YY    0.000665  -0.000383  -0.000000  -0.000000   0.001555
   76  H  3 ZZ   -0.000414   0.000399   0.000000   0.000000  -0.001577
   77  H  3 XY    0.000604  -0.000368  -0.000000  -0.000000   0.001549
   78  H  3 XZ   -0.000000   0.000000  -0.000224  -0.000026  -0.000000
   79  H  3 YZ   -0.000000   0.000000  -0.000286  -0.000223   0.000000
   80  H  4  S   -0.000005  -0.002845  -0.000000  -0.000000   0.075276
   81  H  4  S   -0.000002  -0.000853   0.000000   0.000000   0.108351
   82  H  4  S   -0.000002  -0.000345   0.000000   0.000000   0.010125
   83  H  4  X    0.000002   0.000905  -0.000000   0.000000  -0.007073
   84  H  4  Y    0.000461  -0.000000  -0.000000   0.000000   0.000000
   85  H  4  Z   -0.000000   0.000000   0.000000   0.000456  -0.000000
   86  H  4  X   -0.000000  -0.000148  -0.000000  -0.000000  -0.012815
   87  H  4  Y    0.001017  -0.000000  -0.000000  -0.000000   0.000000
   88  H  4  Z    0.000000   0.000000   0.000001   0.001150  -0.000000
   89  H  4 XX   -0.000001  -0.000577   0.000000   0.000000   0.002380
   90  H  4 YY    0.000001   0.000171  -0.000000  -0.000000  -0.000774
   91  H  4 ZZ    0.000000   0.000407   0.000000   0.000000  -0.001606
   92  H  4 XY   -0.000320   0.000000   0.000000  -0.000000  -0.000000
   93  H  4 XZ   -0.000000   0.000000  -0.000000  -0.000432  -0.000000
   94  H  4 YZ   -0.000000   0.000000   0.000104  -0.000000  -0.000000

                     16         17         18         19         20
                    1.7205     1.7202     1.2381     0.2905     0.0296
                     A          A          A          A          A   
    1  AS 1  S   -0.000015  -0.000000   0.000000   0.001257   0.000000
    2  AS 1  S   -0.000103  -0.000000   0.000000   0.009554   0.000003
    3  AS 1  S   -0.000416  -0.000001  -0.000000   0.063196   0.000014
    4  AS 1  S   -0.001712  -0.000005   0.000000   0.491245   0.000034
    5  AS 1  S   -0.000550  -0.000002   0.000000   0.249891   0.000014
    6  AS 1  S   -0.001639  -0.000005   0.000000   0.661182  -0.000001
    7  AS 1  X   -0.004030  -0.000004   0.000000  -0.000015   0.000013
    8  AS 1  Y    0.000004  -0.003973  -0.000000  -0.000000   0.014102
    9  AS 1  Z    0.000000   0.000000  -0.000249   0.000000  -0.000000
   10  AS 1  X   -0.053633  -0.000051  -0.000000  -0.000339   0.000169
   11  AS 1  Y    0.000051  -0.052948  -0.000000  -0.000001   0.190537
   12  AS 1  Z   -0.000000   0.000000  -0.001190   0.000000  -0.000000
   13  AS 1  X    0.363906   0.000348  -0.000000  -0.007165   0.000866
   14  AS 1  Y   -0.000347   0.364454   0.000000  -0.000014   0.976954
   15  AS 1  Z    0.000000  -0.000000   0.613183   0.000000  -0.000000
   16  AS 1  X    0.167258   0.000159   0.000000  -0.002693   0.000234
   17  AS 1  Y   -0.000160   0.166929   0.000000  -0.000005   0.263567
   18  AS 1  Z    0.000000  -0.000000   0.226753   0.000000  -0.000000
   19  AS 1  X    0.065603   0.000063  -0.000000  -0.004962   0.000188
   20  AS 1  Y   -0.000063   0.066253   0.000000  -0.000009   0.211976
   21  AS 1  Z    0.000000   0.000000   0.294903   0.000000  -0.000000
   22  AS 1 XX   -0.053989  -0.000051   0.000000   0.057171   0.000095
   23  AS 1 YY    0.053772   0.000051  -0.000000   0.058657  -0.000089
   24  AS 1 ZZ    0.000217   0.000001   0.000000  -0.115827  -0.000006
   25  AS 1 XY   -0.000059   0.061686   0.000000   0.000002  -0.119869
   26  AS 1 XZ    0.000000  -0.000000  -0.000073   0.000000   0.000000
   27  AS 1 YZ   -0.000000   0.000000  -0.000000  -0.000000  -0.000000
   28  AS 1 XX    0.028496   0.000027  -0.000000  -0.047427  -0.000056
   29  AS 1 YY   -0.028383  -0.000027   0.000000  -0.048409   0.000052
   30  AS 1 ZZ   -0.000112  -0.000000   0.000000   0.095837   0.000004
   31  AS 1 XY    0.000031  -0.032577  -0.000000  -0.000001   0.070022
   32  AS 1 XZ    0.000000  -0.000000   0.000007   0.000000  -0.000000
   33  AS 1 YZ   -0.000000   0.000000   0.000000   0.000000   0.000000
   34  AS 1 XX    0.021263   0.000020  -0.000000  -0.091165   0.000035
   35  AS 1 YY   -0.021211  -0.000020   0.000000  -0.093870  -0.000037
   36  AS 1 ZZ   -0.000052  -0.000000   0.000000   0.185035   0.000002
   37  AS 1 XY    0.000023  -0.024475   0.000000  -0.000003  -0.047068
   38  AS 1 XZ    0.000000  -0.000000  -0.000095   0.000000   0.000000
   39  AS 1 YZ   -0.000000   0.000000  -0.000000  -0.000000  -0.000000
   40  AS 1 XXX   0.007925   0.000008   0.000000  -0.043895  -0.000008
   41  AS 1 YYY  -0.000008   0.007829   0.000000   0.000000  -0.006226
   42  AS 1 ZZZ   0.000000   0.000000  -0.014266   0.000000   0.000000
   43  AS 1 XXY  -0.000003   0.003460   0.000000   0.000000  -0.002997
   44  AS 1 XXZ   0.000000   0.000000   0.009570   0.000000   0.000000
   45  AS 1 YYX   0.003391   0.000003   0.000000   0.059131   0.000001
   46  AS 1 YYZ   0.000000  -0.000000   0.009571   0.000000  -0.000000
   47  AS 1 ZZX  -0.014023  -0.000013   0.000000  -0.000240   0.000010
   48  AS 1 ZZY   0.000013  -0.013964  -0.000000  -0.000000   0.011350
   49  AS 1 XYZ   0.000000   0.000000  -0.000000   0.000000  -0.000000
   50  H  2  S   -0.081380   0.140336  -0.000000  -0.140170  -0.230133
   51  H  2  S   -0.142836   0.246301   0.000000  -0.328141  -0.659599
   52  H  2  S   -0.040503   0.070287  -0.000000  -0.305116  -0.061263
   53  H  2  X   -0.001428   0.005784  -0.000000   0.000533  -0.001547
   54  H  2  Y    0.005816  -0.008082  -0.000000  -0.001074   0.009734
   55  H  2  Z    0.000000   0.000000   0.004502   0.000000  -0.000000
   56  H  2  X   -0.002623   0.014260   0.000000  -0.000622  -0.041172
   57  H  2  Y    0.014351  -0.018978   0.000000   0.000494   0.108783
   58  H  2  Z    0.000000  -0.000000   0.023111  -0.000000   0.000000
   59  H  2 XX    0.001441   0.000211   0.000000  -0.000498   0.002752
   60  H  2 YY   -0.002560   0.001720  -0.000000   0.000024  -0.009589
   61  H  2 ZZ    0.001119  -0.001931   0.000000   0.000475   0.006837
   62  H  2 XY    0.000881  -0.003301   0.000000  -0.000442   0.006250
   63  H  2 XZ    0.000000   0.000000   0.001326   0.000000   0.000000
   64  H  2 YZ    0.000000   0.000000  -0.002297  -0.000000  -0.000000
   65  H  3  S   -0.081112  -0.140490   0.000000  -0.140176   0.230350
   66  H  3  S   -0.142365  -0.246574  -0.000000  -0.328156   0.660235
   67  H  3  S   -0.040369  -0.070364   0.000000  -0.305133   0.061335
   68  H  3  X   -0.001417  -0.005786   0.000000   0.000533   0.001561
   69  H  3  Y   -0.005800  -0.008093  -0.000000   0.001075   0.009735
   70  H  3  Z    0.000000   0.000000   0.004502  -0.000000  -0.000000
   71  H  3  X   -0.002596  -0.014265  -0.000000  -0.000622   0.041278
   72  H  3  Y   -0.014314  -0.019006   0.000000  -0.000495   0.108850
   73  H  3  Z   -0.000000  -0.000000   0.023111   0.000000   0.000000
   74  H  3 XX    0.001441  -0.000208  -0.000000  -0.000498  -0.002745
   75  H  3 YY   -0.002557  -0.001725   0.000000   0.000024   0.009588
   76  H  3 ZZ    0.001116   0.001933   0.000000   0.000475  -0.006843
   77  H  3 XY   -0.000875  -0.003303   0.000000   0.000442   0.006263
   78  H  3 XZ   -0.000000   0.000000   0.001326  -0.000000   0.000000
   79  H  3 YZ    0.000000  -0.000000   0.002297  -0.000000   0.000000
   80  H  4  S    0.162747   0.000155  -0.000000  -0.137696  -0.000245
   81  H  4  S    0.284339   0.000271   0.000000  -0.320957  -0.000695
   82  H  4  S    0.080855   0.000077   0.000000  -0.297330  -0.000058
   83  H  4  X   -0.011522  -0.000011   0.000000  -0.001116   0.000010
   84  H  4  Y   -0.000002   0.001980  -0.000000  -0.000000   0.007242
   85  H  4  Z    0.000000   0.000000   0.004575   0.000000  -0.000000
   86  H  4  X   -0.027124  -0.000026  -0.000000   0.000446   0.000121
   87  H  4  Y   -0.000005   0.005746  -0.000000  -0.000001   0.038277
   88  H  4  Z    0.000000   0.000000   0.023201   0.000000  -0.000000
   89  H  4 XX    0.004407   0.000004   0.000000   0.000161  -0.000012
   90  H  4 YY   -0.002185  -0.000002   0.000000  -0.000677   0.000005
   91  H  4 ZZ   -0.002223  -0.000002   0.000000   0.000515   0.000007
   92  H  4 XY    0.000002  -0.001836   0.000000   0.000000  -0.006146
   93  H  4 XZ    0.000000   0.000000  -0.002665   0.000000  -0.000000
   94  H  4 YZ   -0.000000   0.000000  -0.000000   0.000000  -0.000000

                     21
                    0.0292
                     A   
    1  AS 1  S    0.000159
    2  AS 1  S    0.001108
    3  AS 1  S    0.004924
    4  AS 1  S    0.012482
    5  AS 1  S    0.005186
    6  AS 1  S   -0.000306
    7  AS 1  X    0.014375
    8  AS 1  Y   -0.000013
    9  AS 1  Z    0.000000
   10  AS 1  X    0.193943
   11  AS 1  Y   -0.000172
   12  AS 1  Z    0.000000
   13  AS 1  X    0.983655
   14  AS 1  Y   -0.000873
   15  AS 1  Z    0.000000
   16  AS 1  X    0.264225
   17  AS 1  Y   -0.000234
   18  AS 1  Z    0.000000
   19  AS 1  X    0.211021
   20  AS 1  Y   -0.000187
   21  AS 1  Z   -0.000000
   22  AS 1 XX    0.105606
   23  AS 1 YY   -0.103597
   24  AS 1 ZZ   -0.002009
   25  AS 1 XY    0.000107
   26  AS 1 XZ    0.000000
   27  AS 1 YZ   -0.000000
   28  AS 1 XX   -0.061136
   29  AS 1 YY    0.059800
   30  AS 1 ZZ    0.001336
   31  AS 1 XY   -0.000062
   32  AS 1 XZ   -0.000000
   33  AS 1 YZ    0.000000
   34  AS 1 XX    0.041831
   35  AS 1 YY   -0.042485
   36  AS 1 ZZ    0.000653
   37  AS 1 XY    0.000043
   38  AS 1 XZ    0.000000
   39  AS 1 YZ    0.000000
   40  AS 1 XXX  -0.007007
   41  AS 1 YYY   0.000005
   42  AS 1 ZZZ   0.000000
   43  AS 1 XXY   0.000003
   44  AS 1 XXZ  -0.000000
   45  AS 1 YYX  -0.001604
   46  AS 1 YYZ  -0.000000
   47  AS 1 ZZX   0.011005
   48  AS 1 ZZY  -0.000010
   49  AS 1 XYZ  -0.000000
   50  H  2  S    0.130484
   51  H  2  S    0.377048
   52  H  2  S    0.036084
   53  H  2  X    0.007977
   54  H  2  Y   -0.001428
   55  H  2  Z   -0.000000
   56  H  2  X    0.061852
   57  H  2  Y   -0.040879
   58  H  2  Z    0.000000
   59  H  2 XX    0.003683
   60  H  2 YY    0.000200
   61  H  2 ZZ   -0.003883
   62  H  2 XY   -0.007184
   63  H  2 XZ   -0.000000
   64  H  2 YZ    0.000000
   65  H  3  S    0.130073
   66  H  3  S    0.375869
   67  H  3  S    0.035979
   68  H  3  X    0.007974
   69  H  3  Y    0.001411
   70  H  3  Z    0.000000
   71  H  3  X    0.061777
   72  H  3  Y    0.040683
   73  H  3  Z    0.000000
   74  H  3 XX    0.003688
   75  H  3 YY    0.000183
   76  H  3 ZZ   -0.003870
   77  H  3 XY    0.007172
   78  H  3 XZ    0.000000
   79  H  3 YZ    0.000000
   80  H  4  S   -0.270940
   81  H  4  S   -0.774020
   82  H  4  S   -0.066947
   83  H  4  X    0.011321
   84  H  4  Y   -0.000007
   85  H  4  Z   -0.000000
   86  H  4  X    0.135906
   87  H  4  Y   -0.000035
   88  H  4  Z   -0.000000
   89  H  4 XX   -0.013351
   90  H  4 YY    0.005202
   91  H  4 ZZ    0.008149
   92  H  4 XY    0.000006
   93  H  4 XZ   -0.000000
   94  H  4 YZ    0.000000

          ------------------------
          MCSCF OPTIMIZED ORBITALS
          ------------------------

                      1          2          3          4          5
                 -432.8954   -56.6209   -50.4654   -50.4653   -50.4653
                     A          A          A          A          A   
    1  AS 1  S    0.999999   0.000003   0.000000  -0.000000  -0.000000
    2  AS 1  S    0.000001   1.000103   0.000000  -0.000000   0.000000
    3  AS 1  S   -0.000004   0.000135   0.000000  -0.000000  -0.000003
    4  AS 1  S   -0.000005   0.000143   0.000000  -0.000000  -0.000004
    5  AS 1  S    0.000016  -0.000426   0.000000   0.000000   0.000000
    6  AS 1  S    0.000005  -0.000140   0.000000  -0.000000  -0.000001
    7  AS 1  X   -0.000000  -0.000001   0.000000   0.000919   1.000024
    8  AS 1  Y    0.000000  -0.000000  -0.000000   1.000025  -0.000919
    9  AS 1  Z    0.000000  -0.000000   1.000026   0.000000  -0.000000
   10  AS 1  X    0.000000   0.000000  -0.000000  -0.000000  -0.000004
   11  AS 1  Y    0.000000   0.000000   0.000000  -0.000002   0.000000
   12  AS 1  Z    0.000000  -0.000000   0.000001  -0.000000   0.000000
   13  AS 1  X    0.000000  -0.000000  -0.000000  -0.000000  -0.000091
   14  AS 1  Y    0.000000  -0.000000   0.000000  -0.000087   0.000000
   15  AS 1  Z    0.000000  -0.000000  -0.000002   0.000000   0.000000
   16  AS 1  X    0.000000  -0.000000   0.000000  -0.000000  -0.000501
   17  AS 1  Y    0.000000  -0.000000  -0.000000  -0.000500   0.000000
   18  AS 1  Z    0.000000  -0.000000  -0.000447   0.000000   0.000000
   19  AS 1  X    0.000000  -0.000000   0.000000  -0.000000  -0.000090
   20  AS 1  Y    0.000000  -0.000000   0.000000  -0.000090   0.000000
   21  AS 1  Z    0.000000  -0.000000  -0.000069   0.000000   0.000000
   22  AS 1 XX    0.000000  -0.000001   0.000000   0.000000   0.000002
   23  AS 1 YY    0.000000  -0.000000   0.000000  -0.000000  -0.000002
   24  AS 1 ZZ   -0.000000   0.000001   0.000000  -0.000000  -0.000000
   25  AS 1 XY    0.000000   0.000000   0.000000  -0.000002   0.000000
   26  AS 1 XZ    0.000000  -0.000000   0.000000  -0.000000   0.000000
   27  AS 1 YZ    0.000000  -0.000000   0.000000   0.000000   0.000000
   28  AS 1 XX    0.000000  -0.000002   0.000000  -0.000000  -0.000057
   29  AS 1 YY    0.000000  -0.000002   0.000000   0.000000   0.000056
   30  AS 1 ZZ   -0.000000   0.000004   0.000000   0.000000   0.000001
   31  AS 1 XY    0.000000   0.000000  -0.000000   0.000064  -0.000000
   32  AS 1 XZ    0.000000  -0.000000  -0.000000   0.000000   0.000000
   33  AS 1 YZ    0.000000  -0.000000  -0.000000   0.000000  -0.000000
   34  AS 1 XX    0.000000  -0.000002  -0.000000  -0.000000  -0.000017
   35  AS 1 YY    0.000000  -0.000002   0.000000   0.000000   0.000016
   36  AS 1 ZZ   -0.000000   0.000004   0.000000   0.000000   0.000001
   37  AS 1 XY    0.000000   0.000000  -0.000000   0.000018  -0.000000
   38  AS 1 XZ    0.000000  -0.000000  -0.000000   0.000000   0.000000
   39  AS 1 YZ   -0.000000  -0.000000  -0.000000   0.000000   0.000000
   40  AS 1 XXX   0.000000  -0.000006   0.000000  -0.000000  -0.000014
   41  AS 1 YYY  -0.000000  -0.000000   0.000000  -0.000013   0.000000
   42  AS 1 ZZZ   0.000000  -0.000000  -0.000000   0.000000   0.000000
   43  AS 1 XXY   0.000000  -0.000000   0.000000  -0.000006   0.000000
   44  AS 1 XXZ   0.000000  -0.000000   0.000000   0.000000   0.000000
   45  AS 1 YYX  -0.000000   0.000008   0.000000  -0.000000  -0.000005
   46  AS 1 YYZ   0.000000  -0.000000   0.000000  -0.000000   0.000000
   47  AS 1 ZZX  -0.000000   0.000000   0.000000   0.000000   0.000024
   48  AS 1 ZZY   0.000000   0.000000  -0.000000   0.000023  -0.000000
   49  AS 1 XYZ   0.000000   0.000000   0.000000   0.000000  -0.000000
   50  H  2  S   -0.000000   0.000006   0.000000  -0.000012   0.000007
   51  H  2  S   -0.000000   0.000011  -0.000000   0.000059  -0.000034
   52  H  2  S   -0.000001   0.000029  -0.000000   0.000041  -0.000023
   53  H  2  X   -0.000000   0.000002   0.000000   0.000007  -0.000005
   54  H  2  Y    0.000000  -0.000003   0.000000  -0.000013   0.000007
   55  H  2  Z    0.000000  -0.000000   0.000001  -0.000000   0.000000
   56  H  2  X   -0.000000   0.000004  -0.000000   0.000030  -0.000019
   57  H  2  Y    0.000000  -0.000007   0.000000  -0.000053   0.000030
   58  H  2  Z    0.000000   0.000000  -0.000005   0.000000  -0.000000
   59  H  2 XX    0.000000  -0.000001   0.000000  -0.000002   0.000005
   60  H  2 YY   -0.000000   0.000005  -0.000000   0.000021  -0.000016
   61  H  2 ZZ    0.000000  -0.000004   0.000000  -0.000019   0.000011
   62  H  2 XY    0.000000  -0.000006   0.000000  -0.000028   0.000014
   63  H  2 XZ    0.000000   0.000000   0.000003   0.000000  -0.000000
   64  H  2 YZ   -0.000000  -0.000000  -0.000005   0.000000   0.000000
   65  H  3  S   -0.000000   0.000006  -0.000000   0.000012   0.000007
   66  H  3  S   -0.000000   0.000011   0.000000  -0.000059  -0.000034
   67  H  3  S   -0.000001   0.000029   0.000000  -0.000041  -0.000023
   68  H  3  X   -0.000000   0.000002   0.000000  -0.000007  -0.000005
   69  H  3  Y   -0.000000   0.000003   0.000000  -0.000013  -0.000007
   70  H  3  Z    0.000000   0.000000   0.000001  -0.000000  -0.000000
   71  H  3  X   -0.000000   0.000004   0.000000  -0.000030  -0.000019
   72  H  3  Y   -0.000000   0.000007   0.000000  -0.000053  -0.000030
   73  H  3  Z   -0.000000  -0.000000  -0.000005   0.000000   0.000000
   74  H  3 XX    0.000000  -0.000001   0.000000   0.000002   0.000005
   75  H  3 YY   -0.000000   0.000005   0.000000  -0.000021  -0.000016
   76  H  3 ZZ    0.000000  -0.000004  -0.000000   0.000019   0.000011
   77  H  3 XY   -0.000000   0.000006   0.000000  -0.000028  -0.000014
   78  H  3 XZ    0.000000  -0.000000   0.000003   0.000000   0.000000
   79  H  3 YZ   -0.000000  -0.000000   0.000005  -0.000000   0.000000
   80  H  4  S   -0.000000   0.000006   0.000000  -0.000000  -0.000014
   81  H  4  S   -0.000000   0.000012   0.000000   0.000000   0.000074
   82  H  4  S   -0.000001   0.000030  -0.000000   0.000000   0.000048
   83  H  4  X    0.000000  -0.000004   0.000000  -0.000000  -0.000017
   84  H  4  Y    0.000000  -0.000000   0.000000  -0.000001   0.000000
   85  H  4  Z    0.000000  -0.000000   0.000001   0.000000   0.000000
   86  H  4  X    0.000000  -0.000009  -0.000000  -0.000000  -0.000074
   87  H  4  Y   -0.000000  -0.000000   0.000000  -0.000002   0.000000
   88  H  4  Z    0.000000  -0.000000  -0.000005  -0.000000   0.000000
   89  H  4 XX   -0.000000   0.000008   0.000000   0.000000   0.000042
   90  H  4 YY    0.000000  -0.000004   0.000000  -0.000000  -0.000020
   91  H  4 ZZ    0.000000  -0.000004   0.000000  -0.000000  -0.000022
   92  H  4 XY    0.000000  -0.000000   0.000000  -0.000004   0.000000
   93  H  4 XZ    0.000000  -0.000000  -0.000006   0.000000   0.000000
   94  H  4 YZ    0.000000   0.000000  -0.000000   0.000000   0.000000

                      6          7          8          9         10
                   -8.3450    -6.1998    -6.1997    -6.1964    -2.4338
                     A          A          A          A          A   
    1  AS 1  S   -0.000085  -0.000002  -0.000000   0.000000   0.000002
    2  AS 1  S   -0.000609  -0.000011  -0.000000   0.000000   0.000016
    3  AS 1  S    0.975257  -0.000078  -0.000000   0.000000   0.000043
    4  AS 1  S   -0.001924  -0.000043  -0.000000   0.000000   0.000003
    5  AS 1  S    0.036270   0.000018   0.000000   0.000000  -0.000061
    6  AS 1  S    0.004132   0.000011   0.000000   0.000000  -0.000040
    7  AS 1  X   -0.000001  -0.000105  -0.000000   0.000000   0.000215
    8  AS 1  Y   -0.000000   0.000000  -0.000106   0.000000  -0.000000
    9  AS 1  Z   -0.000000   0.000000  -0.000000   0.000031   0.000000
   10  AS 1  X    0.000029   0.974395   0.000884  -0.000000   0.001014
   11  AS 1  Y    0.000000  -0.000884   0.974390  -0.000000  -0.000001
   12  AS 1  Z   -0.000000   0.000000   0.000000   0.975679   0.000000
   13  AS 1  X   -0.000009  -0.000996  -0.000001  -0.000000   0.004662
   14  AS 1  Y   -0.000000   0.000001  -0.001004   0.000000  -0.000004
   15  AS 1  Z   -0.000000   0.000000  -0.000000   0.000431   0.000000
   16  AS 1  X    0.000007   0.047788   0.000043  -0.000000  -0.001866
   17  AS 1  Y    0.000000  -0.000043   0.047803  -0.000000   0.000002
   18  AS 1  Z   -0.000000   0.000000   0.000000   0.046644  -0.000000
   19  AS 1  X    0.000003   0.002067   0.000002   0.000000  -0.002560
   20  AS 1  Y    0.000000  -0.000002   0.002069   0.000000   0.000002
   21  AS 1  Z   -0.000000  -0.000000   0.000000   0.001652   0.000000
   22  AS 1 XX    0.000328   0.000630   0.000001   0.000000   0.838927
   23  AS 1 YY    0.000320  -0.000615  -0.000001   0.000000  -0.835408
   24  AS 1 ZZ   -0.000647  -0.000015  -0.000000   0.000000  -0.003519
   25  AS 1 XY   -0.000000   0.000001  -0.000686   0.000000   0.000885
   26  AS 1 XZ   -0.000000   0.000000   0.000000   0.000012   0.000000
   27  AS 1 YZ    0.000000   0.000000  -0.000000   0.000000   0.000000
   28  AS 1 XX    0.000049  -0.000330  -0.000000  -0.000000   0.073455
   29  AS 1 YY    0.000052   0.000326   0.000000   0.000000  -0.073142
   30  AS 1 ZZ   -0.000101   0.000004   0.000000   0.000000  -0.000313
   31  AS 1 XY    0.000000  -0.000000   0.000385  -0.000000   0.000077
   32  AS 1 XZ   -0.000000   0.000000  -0.000000   0.000007   0.000000
   33  AS 1 YZ   -0.000000  -0.000000  -0.000000   0.000000   0.000000
   34  AS 1 XX   -0.000016  -0.000215  -0.000000   0.000000   0.000472
   35  AS 1 YY   -0.000015   0.000213   0.000000   0.000000  -0.000453
   36  AS 1 ZZ    0.000031   0.000002   0.000000   0.000000  -0.000019
   37  AS 1 XY    0.000000  -0.000000   0.000247  -0.000000   0.000000
   38  AS 1 XZ   -0.000000   0.000000   0.000000  -0.000003   0.000000
   39  AS 1 YZ   -0.000000   0.000000   0.000000  -0.000000   0.000000
   40  AS 1 XXX   0.000049   0.000052   0.000000  -0.000000   0.000468
   41  AS 1 YYY  -0.000000  -0.000000   0.000050   0.000000  -0.000000
   42  AS 1 ZZZ  -0.000000   0.000000   0.000000  -0.000215   0.000000
   43  AS 1 XXY  -0.000000  -0.000000   0.000027   0.000000  -0.000000
   44  AS 1 XXZ  -0.000000  -0.000000  -0.000000   0.000146  -0.000000
   45  AS 1 YYX  -0.000066   0.000027   0.000000  -0.000000   0.000167
   46  AS 1 YYZ  -0.000000  -0.000000  -0.000000   0.000143   0.000000
   47  AS 1 ZZX   0.000001  -0.000097  -0.000000   0.000000  -0.000794
   48  AS 1 ZZY   0.000000   0.000000  -0.000095  -0.000000   0.000001
   49  AS 1 XYZ   0.000000  -0.000000  -0.000000  -0.000000  -0.000000
   50  H  2  S    0.000002  -0.000214   0.000369   0.000000  -0.002749
   51  H  2  S    0.000331  -0.000985   0.001720  -0.000000  -0.001358
   52  H  2  S   -0.000675   0.000346  -0.000601  -0.000000  -0.000856
   53  H  2  X   -0.000004   0.000010   0.000024   0.000000  -0.000733
   54  H  2  Y    0.000008   0.000024  -0.000018  -0.000000   0.000499
   55  H  2  Z   -0.000000  -0.000000  -0.000000   0.000011   0.000000
   56  H  2  X    0.000005  -0.000043   0.000265  -0.000000  -0.000727
   57  H  2  Y   -0.000009   0.000260  -0.000350   0.000000  -0.000486
   58  H  2  Z    0.000000  -0.000000   0.000000   0.000124  -0.000000
   59  H  2 XX   -0.000004  -0.000001  -0.000051   0.000000  -0.000121
   60  H  2 YY    0.000024  -0.000043   0.000129  -0.000000  -0.000116
   61  H  2 ZZ   -0.000020   0.000044  -0.000077   0.000000   0.000237
   62  H  2 XY   -0.000028   0.000104  -0.000145   0.000000   0.000526
   63  H  2 XZ    0.000000  -0.000000   0.000000  -0.000018   0.000000
   64  H  2 YZ   -0.000000   0.000000  -0.000000   0.000031   0.000000
   65  H  3  S    0.000002  -0.000213  -0.000369  -0.000000  -0.002740
   66  H  3  S    0.000331  -0.000982  -0.001722   0.000000  -0.001354
   67  H  3  S   -0.000675   0.000345   0.000601   0.000000  -0.000853
   68  H  3  X   -0.000004   0.000010  -0.000024  -0.000000  -0.000732
   69  H  3  Y   -0.000008  -0.000024  -0.000018  -0.000000  -0.000497
   70  H  3  Z    0.000000  -0.000000  -0.000000   0.000011   0.000000
   71  H  3  X    0.000005  -0.000043  -0.000265   0.000000  -0.000728
   72  H  3  Y    0.000009  -0.000259  -0.000350   0.000000   0.000486
   73  H  3  Z   -0.000000   0.000000   0.000000   0.000124   0.000000
   74  H  3 XX   -0.000004  -0.000001   0.000051  -0.000000  -0.000122
   75  H  3 YY    0.000024  -0.000043  -0.000129   0.000000  -0.000115
   76  H  3 ZZ   -0.000020   0.000044   0.000077  -0.000000   0.000237
   77  H  3 XY    0.000028  -0.000103  -0.000145   0.000000  -0.000525
   78  H  3 XZ   -0.000000   0.000000   0.000000  -0.000018  -0.000000
   79  H  3 YZ   -0.000000   0.000000   0.000000  -0.000031   0.000000
   80  H  4  S    0.000002   0.000436   0.000000  -0.000000   0.005626
   81  H  4  S    0.000339   0.002011   0.000002   0.000000   0.002630
   82  H  4  S   -0.000682  -0.000702  -0.000001  -0.000000   0.001714
   83  H  4  X    0.000004  -0.000048  -0.000000   0.000000  -0.001658
   84  H  4  Y    0.000000  -0.000000   0.000024  -0.000000   0.000000
   85  H  4  Z   -0.000000  -0.000000  -0.000000   0.000011  -0.000000
   86  H  4  X   -0.000012  -0.000503  -0.000000  -0.000000   0.000152
   87  H  4  Y    0.000000  -0.000000   0.000107   0.000000   0.000001
   88  H  4  Z   -0.000000  -0.000000   0.000000   0.000125  -0.000000
   89  H  4 XX    0.000043   0.000241   0.000000   0.000000   0.001058
   90  H  4 YY   -0.000020  -0.000142  -0.000000   0.000000  -0.000564
   91  H  4 ZZ   -0.000023  -0.000098  -0.000000   0.000000  -0.000494
[...]
       44    0.020482   -0.020482  -2+20+0

 State #    4  Energy =   -2235.692450139

      Det      Coef        Coefp    Occupancy (Ignoring core)
      ---      ----        ----    --------- --------- -----
       71    0.950662   -0.950662  2+22000
      177   -0.119980    0.119980  2+20200
        6    0.116983   -0.116983  22200+0
       38    0.102558   -0.102558  2202+00
       74   -0.101339    0.101339  2022+00
       78   -0.091872    0.091872  20220+0
      248   -0.069456    0.069456  2+02200
      109    0.055911   -0.055911  +-22+00
      822   -0.053012    0.053012  2+02002
      122   -0.050996   -0.050996  +2-200+
      113    0.050895   -0.050895  +-220+0
       42   -0.044166    0.044166  22020+0
      810    0.039626    0.039626  -++2+0-
       75   -0.039593   -0.039593  -+22+00
       53   -0.036702   -0.036702  2-+200+
      332    0.032244   -0.032244  ++-2-0+
      841    0.029314   -0.029314  +2+200-
      878   -0.028910   -0.028910  ++-2+0-
      526   -0.027950   -0.027950  ++220-0
      809   -0.027509    0.027509  20+2+0-
      458    0.027505   -0.027505  2+02+-0
      323   -0.025912    0.025912  +022-+0
      320   -0.025714   -0.025714  0+22200
      264   -0.025672    0.025672  -++2-0+
      534   -0.025448   -0.025448  0+22020
      894   -0.025431   -0.025431  0+22002
      252   -0.024570   -0.024570  2+02-+0
      263    0.024442    0.024442  20+2-0+
      806    0.024352    0.024352  2++200-
       79   -0.022945   -0.022945  -+220+0
      462   -0.022552    0.022552  2+02020
      529    0.021754    0.021754  +022+-0
       54    0.021682   -0.021682  -2+200+

 ---------------------------------------
      - DIABATIC STATES IN CMO -        
 ---------------------------------------

 State #    1  Energy =   -2235.921738666

      Det      Coef        Coefp    Occupancy (Ignoring core)
      ---      ----        ----    --------- --------- -----
        1   -0.976693    0.976693  222+000
      107    0.073554   -0.073554  +22-+00
      143    0.061730    0.061730  220+200
      179    0.059889    0.059889  202+200
      393    0.059670    0.059670  202+020
      717    0.059259    0.059259  220+002
      211   -0.038240   -0.038240  +22+-00
        5   -0.035314   -0.035314  -22++00
       51    0.033610   -0.033610  22+-00+
       76    0.033367    0.033367  2+2-0+0
      218    0.032641   -0.032641  +-2+-+0
      738    0.032585    0.032585  2+-++0-
      227    0.032484    0.032484  +2-+-0+
      704   -0.032399    0.032399  2-+++0-
      389    0.031623    0.031623  202++-0
      353   -0.031590   -0.031590  220++-0
      158    0.030460    0.030460  2-++-0+
      192   -0.030338    0.030338  2+-+-0+
      215    0.029792    0.029792  022+200
      183   -0.029505    0.029505  202+-+0
      147    0.029484   -0.029484  220+-+0
      390    0.028507   -0.028507  -+2++-0
      705    0.028331    0.028331  -2+++0-
        8   -0.026204    0.026204  2-2+0+0
      368   -0.026192   -0.026192  2-++0-+
      742   -0.026176   -0.026176  2+-+0+-
       17   -0.026131   -0.026131  22-+00+
      424   -0.025847   -0.025847  +-2++-0
      773   -0.025676    0.025676  +2-++0-
      184   -0.024375   -0.024375  -+2+-+0
      159   -0.024201    0.024201  -2++-0+
      753    0.021982    0.021982  202+002
      789    0.021569    0.021569  022+002
      429    0.021554    0.021554  022+020
      357    0.021206    0.021206  220+020

 State #    2  Energy =   -2235.728742766

      Det      Coef        Coefp    Occupancy (Ignoring core)
      ---      ----        ----    --------- --------- -----
        2   -0.951847    0.951847  2220+00
      106   -0.172522   -0.172522  +222000
      156   -0.082394    0.082394  22+0-0+
      702    0.079355    0.079355  22+0+0-
      181   -0.079345   -0.079345  2+20-+0
      387    0.076140   -0.076140  2+20+-0
      212    0.064045    0.064045  +220200
      396    0.061547    0.061547  2020+20
      720    0.061232    0.061232  2200+02
      110    0.057395   -0.057395  0222+00
      391    0.050706   -0.050706  2+20020
      751   -0.049770    0.049770  2+20002
      706   -0.049185   -0.049185  22+00+-
      366    0.048812   -0.048812  22+00-+
       38    0.031319   -0.031319  2202+00
       74    0.031219   -0.031219  2022+00
      161    0.028387    0.028387  2-+020+
      195   -0.028106    0.028106  2+-020+
      150    0.027604   -0.027604  22002+0
      186   -0.027545    0.027545  20202+0
      371   -0.025640   -0.025640  2-+0+-+
      745   -0.025593   -0.025593  2+-0++-
      756    0.025450    0.025450  2020+02
      360    0.024844    0.024844  2200+20
      221    0.022108   -0.022108  +-202+0
      230    0.021974    0.021974  +2-020+
      187   -0.021159   -0.021159  -+202+0
      162   -0.021041    0.021041  -2+020+

 State #    3  Energy =   -2235.693360756

      Det      Coef        Coefp    Occupancy (Ignoring core)
      ---      ----        ----    --------- --------- -----
       36    0.950193    0.950193  22+2000
      142   -0.120741   -0.120741  22+0200
       16    0.118504   -0.118504  222000+
       73   -0.102790    0.102790  2+-2+00
       39    0.102701    0.102701  2-+2+00
       52   -0.092693    0.092693  220200+
      249   -0.068523    0.068523  20+2200
      108    0.056399    0.056399  +2-2+00
      463   -0.053372    0.053372  20+2020
      123   -0.050720    0.050720  +-2200+
      112   -0.050026   -0.050026  +2-20+0
       88   -0.044002    0.044002  202200+
       40   -0.039679    0.039679  -2+2+00
      460   -0.039662   -0.039662  -++2+-0
       77    0.035513   -0.035513  2+-20+0
      288   -0.032339   -0.032339  +-+2-+0
      876    0.029213    0.029213  ++2200-
      494    0.029063   -0.029063  +-+2+-0
      491    0.028779   -0.028779  +2+20-0
      808   -0.027856    0.027856  2+02+0-
      459   -0.027149    0.027149  20+2+-0
      297   -0.025834    0.025834  +202-0+
      285   -0.025800    0.025800  02+2200
      254    0.025706   -0.025706  -++2-+0
      859   -0.025502    0.025502  02+2002
      499   -0.025262    0.025262  02+2020
      262    0.024746    0.024746  2+02-0+
      456   -0.024474   -0.024474  2++20-0
      253    0.024200    0.024200  20+2-+0
      823   -0.022466    0.022466  20+2002
      843    0.021794    0.021794  +202+0-
       89    0.021507    0.021507  -+2200+
       44    0.021247   -0.021247  -2+20+0

 State #    4  Energy =   -2235.692450139

      Det      Coef        Coefp    Occupancy (Ignoring core)
      ---      ----        ----    --------- --------- -----
       71    0.950556   -0.950556  2+22000
      177   -0.119611    0.119611  2+20200
        6    0.116953   -0.116953  22200+0
       38    0.103260   -0.103260  2202+00
       74   -0.099606    0.099606  2022+00
       78   -0.092701    0.092701  20220+0
      248   -0.070150    0.070150  2+02200
      109    0.055643   -0.055643  +-22+00
      822   -0.052990    0.052990  2+02002
      113    0.052141   -0.052141  +-220+0
      122   -0.051011   -0.051011  +2-200+
       42   -0.042778    0.042778  22020+0
       75   -0.039717   -0.039717  -+22+00
      810    0.039460    0.039460  -++2+0-
       53   -0.036788   -0.036788  2-+200+
      332    0.032243   -0.032243  ++-2-0+
      526   -0.029525   -0.029525  ++220-0
      841    0.029457   -0.029457  +2+200-
      878   -0.028886   -0.028886  ++-2+0-
      809   -0.027902    0.027902  20+2+0-
      458    0.026901   -0.026901  2+02+-0
      323   -0.025858    0.025858  +022-+0
      320   -0.025616   -0.025616  0+22200
      534   -0.025554   -0.025554  0+22020
      264   -0.025541    0.025541  -++2-0+
      894   -0.025418   -0.025418  0+22002
      263    0.024858    0.024858  20+2-0+
      806    0.024025    0.024025  2++200-
      252   -0.024001   -0.024001  2+02-+0
       79   -0.022616   -0.022616  -+220+0
      462   -0.021868    0.021868  2+02020
      529    0.021832    0.021832  +022+-0
       54    0.021553   -0.021553  -2+200+

 ---------------------------------------
    -DIABATIC STATES IN PROTOTYPES-     
 ---------------------------------------

     STATE:    1
 Group Ref#    Coefficients
     1    1    0.999077
     2    2    0.000000
     3    3   -0.000000
     4    4    0.000000

WEIGHT OF LISTED PROTOTYPES:   99.82%

     STATE:    2
 Group Ref#    Coefficients
     1    1    0.000000
     2    2    0.997529
     3    3   -0.000008
     4    4   -0.000165

WEIGHT OF LISTED PROTOTYPES:   99.51%

     STATE:    3
 Group Ref#    Coefficients
     1    1   -0.000000
     2    2   -0.000008
     3    3    0.997735
     4    4   -0.000000

WEIGHT OF LISTED PROTOTYPES:   99.55%

     STATE:    4
 Group Ref#    Coefficients
     1    1    0.000000
     2    2   -0.000165
     3    3   -0.000000
     4    4    0.997766

WEIGHT OF LISTED PROTOTYPES:   99.55%

     DIRECT MAX. DIABATIZATION FINISHED    
 CPU     0: STEP CPU TIME=     0.48 TOTAL CPU TIME=        174.2 (      2.9 MIN)
 TOTAL WALL CLOCK TIME=        211.4 SECONDS, CPU UTILIZATION IS    82.39%

DIABATS FOR SPIN-ORBIT CALCULATION ARE READY

TRANSITION DIPOLES BETWEEN ADIABATS (in A.U.):

STATE PAIR      X         Y         Z
    1    1 -0.009495 -0.000018  0.000000
    2    1 -0.000000 -0.000000 -0.466859
    2    2 -0.024411 -0.000045 -0.000000
    3    1  0.000000  0.000000 -0.000023
    3    2 -0.000156 -0.169841 -0.000000
    3    3  0.409010  0.000751 -0.000000
    4    1 -0.000000  0.000000 -0.008195
    4    2 -0.163132  0.000148 -0.000000
    4    3 -0.000763  0.418656 -0.000000
    4    4 -0.425995 -0.000783  0.000000


TRANSITION DIPOLES BETWEEN DIABATS (in A.U.):

STATE PAIR      X         Y         Z
    1    1 -0.009495 -0.000018  0.000000
    2    1  0.000000  0.000000  0.466917
    2    2 -0.027700 -0.000047  0.000000
    3    1 -0.000000  0.000000  0.000045
    3    2 -0.002739  0.165641  0.000000
    3    3  0.408787 -0.013817 -0.000000
    4    1 -0.000000 -0.000000 -0.003546
    4    2  0.167076  0.002725  0.000000
    4    3  0.013658  0.420101 -0.000000
    4    4 -0.422482  0.013787  0.000000

TRANSITION DIPOLES BETWEEN DIRECT MAX. DIABATS (in A.U.):

STATE PAIR      X         Y         Z
    1    1 -0.009495 -0.000018  0.000000
    2    1  0.000000  0.000000  0.466917
    2    2 -0.027700 -0.000047  0.000000
    3    1 -0.000000  0.000000  0.000045
    3    2 -0.002739  0.165641  0.000000
    3    3  0.408787 -0.013817 -0.000000
    4    1 -0.000000 -0.000000 -0.003546
    4    2  0.167076  0.002725  0.000000
    4    3  0.013658  0.420101 -0.000000
    4    4 -0.422482  0.013787  0.000000
 No $TRANST Group Found.
 Quit without doing spin-orbit coupling
 ..... DONE WITH MP2 ENERGY .....
 CPU     0: STEP CPU TIME=     0.01 TOTAL CPU TIME=        174.2 (      2.9 MIN)
 TOTAL WALL CLOCK TIME=        211.4 SECONDS, CPU UTILIZATION IS    82.40%
            250000000  WORDS OF DYNAMIC MEMORY USED
 EXECUTION OF GAMESS TERMINATED NORMALLY Mon Dec  4 10:32:19 2023
 DDI: 14063448 bytes (13.4 MB / 1 MWords) used by master data server.

 ----------------------------------------
 CPU timing information for all processes
 ========================================
 0: 173.742 + 0.497 = 174.240
 1: 172.691 + 0.348 = 173.39
 ----------------------------------------
Note: The following floating-point exceptions are signalling: IEEE_DENORMAL
Note: The following floating-point exceptions are signalling: IEEE_DENORMAL
 ddikick.x: exited gracefully.
unset echo
----- accounting info -----
Files used on the master node io003 were:
-rw-r--r-- 1 bjb2chen nooijen  144601 Dec  4 10:28 /home/bjb2chen/gmsscr//AsH3cat_cct_gmcpt_C1_3st_diab_mode12_-0.05.F05
-rw-r--r-- 1 bjb2chen nooijen 2546152 Dec  4 10:32 /home/bjb2chen/gmsscr//AsH3cat_cct_gmcpt_C1_3st_diab_mode12_-0.05.F09
-rw-r--r-- 1 bjb2chen nooijen 3600320 Dec  4 10:32 /home/bjb2chen/gmsscr//AsH3cat_cct_gmcpt_C1_3st_diab_mode12_-0.05.F09.001
-rw-r--r-- 1 bjb2chen nooijen 3010240 Dec  4 10:32 /home/bjb2chen/gmsscr//AsH3cat_cct_gmcpt_C1_3st_diab_mode12_-0.05.F10
-rw-r--r-- 1 bjb2chen nooijen  685568 Dec  4 10:31 /home/bjb2chen/gmsscr//AsH3cat_cct_gmcpt_C1_3st_diab_mode12_-0.05.F13
-rw-r--r-- 1 bjb2chen nooijen  685568 Dec  4 10:31 /home/bjb2chen/gmsscr//AsH3cat_cct_gmcpt_C1_3st_diab_mode12_-0.05.F13.001
-rw-r--r-- 1 bjb2chen nooijen  181872 Dec  4 10:32 /home/bjb2chen/gmsscr//AsH3cat_cct_gmcpt_C1_3st_diab_mode12_-0.05.F15
-rw-r--r-- 1 bjb2chen nooijen       0 Dec  4 10:28 /home/bjb2chen/gmsscr//AsH3cat_cct_gmcpt_C1_3st_diab_mode12_-0.05.F16
-rw-r--r-- 1 bjb2chen nooijen    9808 Dec  4 10:31 /home/bjb2chen/gmsscr//AsH3cat_cct_gmcpt_C1_3st_diab_mode12_-0.05.F70
-rw-r--r-- 1 bjb2chen nooijen    9808 Dec  4 10:31 /home/bjb2chen/gmsscr//AsH3cat_cct_gmcpt_C1_3st_diab_mode12_-0.05.F70.001
-rw-r--r-- 1 bjb2chen nooijen    9808 Dec  4 10:31 /home/bjb2chen/gmsscr//AsH3cat_cct_gmcpt_C1_3st_diab_mode12_-0.05.F71
-rw-r--r-- 1 bjb2chen nooijen    9808 Dec  4 10:31 /home/bjb2chen/gmsscr//AsH3cat_cct_gmcpt_C1_3st_diab_mode12_-0.05.F71.001
-rw-r--r-- 1 bjb2chen nooijen   19608 Dec  4 10:31 /home/bjb2chen/gmsscr//AsH3cat_cct_gmcpt_C1_3st_diab_mode12_-0.05.F72
-rw-r--r-- 1 bjb2chen nooijen   19608 Dec  4 10:31 /home/bjb2chen/gmsscr//AsH3cat_cct_gmcpt_C1_3st_diab_mode12_-0.05.F72.001
-rw-r--r-- 1 bjb2chen nooijen   19608 Dec  4 10:31 /home/bjb2chen/gmsscr//AsH3cat_cct_gmcpt_C1_3st_diab_mode12_-0.05.F73
-rw-r--r-- 1 bjb2chen nooijen   19608 Dec  4 10:31 /home/bjb2chen/gmsscr//AsH3cat_cct_gmcpt_C1_3st_diab_mode12_-0.05.F73.001
-rw-r--r-- 1 bjb2chen nooijen  961208 Dec  4 10:32 /home/bjb2chen/gmsscr//AsH3cat_cct_gmcpt_C1_3st_diab_mode12_-0.05.F74
-rw-r--r-- 1 bjb2chen nooijen  959640 Dec  4 10:32 /home/bjb2chen/gmsscr//AsH3cat_cct_gmcpt_C1_3st_diab_mode12_-0.05.F74.001
-rw-r--r-- 1 bjb2chen nooijen       0 Dec  4 10:28 /home/bjb2chen/gmsscr//AsH3cat_cct_gmcpt_C1_3st_diab_mode12_-0.05.F75
-rw-r--r-- 1 bjb2chen nooijen       0 Dec  4 10:28 /home/bjb2chen/gmsscr//AsH3cat_cct_gmcpt_C1_3st_diab_mode12_-0.05.F75.001
-rw-r--r-- 1 bjb2chen nooijen   78456 Dec  4 10:32 /home/bjb2chen/gmsscr//AsH3cat_cct_gmcpt_C1_3st_diab_mode12_-0.05.F76
-rw-r--r-- 1 bjb2chen nooijen   78456 Dec  4 10:32 /home/bjb2chen/gmsscr//AsH3cat_cct_gmcpt_C1_3st_diab_mode12_-0.05.F76.001
-rw-r--r-- 1 bjb2chen nooijen       0 Dec  4 10:28 /home/bjb2chen/gmsscr//AsH3cat_cct_gmcpt_C1_3st_diab_mode12_-0.05.F77
-rw-r--r-- 1 bjb2chen nooijen       0 Dec  4 10:28 /home/bjb2chen/gmsscr//AsH3cat_cct_gmcpt_C1_3st_diab_mode12_-0.05.F77.001
-rw-r--r-- 1 bjb2chen nooijen    6408 Dec  4 10:32 /home/bjb2chen/gmsscr//AsH3cat_cct_gmcpt_C1_3st_diab_mode12_-0.05.F78
-rw-r--r-- 1 bjb2chen nooijen    6408 Dec  4 10:32 /home/bjb2chen/gmsscr//AsH3cat_cct_gmcpt_C1_3st_diab_mode12_-0.05.F78.001
-rw-r--r-- 1 bjb2chen nooijen   49008 Dec  4 10:32 /home/bjb2chen/gmsscr//AsH3cat_cct_gmcpt_C1_3st_diab_mode12_-0.05.F79
-rw-r--r-- 1 bjb2chen nooijen   49008 Dec  4 10:32 /home/bjb2chen/gmsscr//AsH3cat_cct_gmcpt_C1_3st_diab_mode12_-0.05.F79.001
-rw-r--r-- 1 bjb2chen nooijen     168 Dec  4 10:31 /home/bjb2chen/gmsscr//AsH3cat_cct_gmcpt_C1_3st_diab_mode12_-0.05.F80
-rw-r--r-- 1 bjb2chen nooijen     168 Dec  4 10:31 /home/bjb2chen/gmsscr//AsH3cat_cct_gmcpt_C1_3st_diab_mode12_-0.05.F80.001
-rw-r--r-- 1 bjb2chen nooijen  102416 Dec  4 10:32 /home/bjb2chen/gmsscr//AsH3cat_cct_gmcpt_C1_3st_diab_mode12_-0.05.F81
-rw-r--r-- 1 bjb2chen nooijen  102416 Dec  4 10:32 /home/bjb2chen/gmsscr//AsH3cat_cct_gmcpt_C1_3st_diab_mode12_-0.05.F81.001
-rw-r--r-- 1 bjb2chen nooijen     656 Dec  4 10:32 /home/bjb2chen/gmsscr//AsH3cat_cct_gmcpt_C1_3st_diab_mode12_-0.05.F82
-rw-r--r-- 1 bjb2chen nooijen     656 Dec  4 10:32 /home/bjb2chen/gmsscr//AsH3cat_cct_gmcpt_C1_3st_diab_mode12_-0.05.F82.001
-rw-r--r-- 1 bjb2chen nooijen   19216 Dec  4 10:32 /home/bjb2chen/gmsscr//AsH3cat_cct_gmcpt_C1_3st_diab_mode12_-0.05.F83
-rw-r--r-- 1 bjb2chen nooijen   19216 Dec  4 10:32 /home/bjb2chen/gmsscr//AsH3cat_cct_gmcpt_C1_3st_diab_mode12_-0.05.F83.001
-rw-r--r-- 1 bjb2chen nooijen  327696 Dec  4 10:32 /home/bjb2chen/gmsscr//AsH3cat_cct_gmcpt_C1_3st_diab_mode12_-0.05.F84
-rw-r--r-- 1 bjb2chen nooijen  327696 Dec  4 10:32 /home/bjb2chen/gmsscr//AsH3cat_cct_gmcpt_C1_3st_diab_mode12_-0.05.F84.001
-rw-r--r-- 1 bjb2chen nooijen 2163912 Dec  4 10:32 /home/bjb2chen/gmsscr//AsH3cat_cct_gmcpt_C1_3st_diab_mode12_-0.05.F85
-rw-r--r-- 1 bjb2chen nooijen 2163912 Dec  4 10:32 /home/bjb2chen/gmsscr//AsH3cat_cct_gmcpt_C1_3st_diab_mode12_-0.05.F85.001
-rw-r--r-- 1 bjb2chen nooijen 8556096 Dec  4 10:32 /home/bjb2chen/gmsscr//AsH3cat_cct_gmcpt_C1_3st_diab_mode12_-0.05.F86
-rw-r--r-- 1 bjb2chen nooijen 8478720 Dec  4 10:32 /home/bjb2chen/gmsscr//AsH3cat_cct_gmcpt_C1_3st_diab_mode12_-0.05.F86.001
-rw-r--r-- 1 bjb2chen nooijen    1160 Dec  4 10:32 /home/bjb2chen/gmsscr//AsH3cat_cct_gmcpt_C1_3st_diab_mode12_-0.05.F87
-rw-r--r-- 1 bjb2chen nooijen    1160 Dec  4 10:32 /home/bjb2chen/gmsscr//AsH3cat_cct_gmcpt_C1_3st_diab_mode12_-0.05.F87.001
-rw-r--r-- 1 bjb2chen nooijen   22432 Dec  4 10:32 /home/bjb2chen/gmsscr//AsH3cat_cct_gmcpt_C1_3st_diab_mode12_-0.05.F88
-rw-r--r-- 1 bjb2chen nooijen   22432 Dec  4 10:32 /home/bjb2chen/gmsscr//AsH3cat_cct_gmcpt_C1_3st_diab_mode12_-0.05.F88.001
-rw-r--r-- 1 bjb2chen nooijen     648 Dec  4 10:32 /home/bjb2chen/gmsscr//AsH3cat_cct_gmcpt_C1_3st_diab_mode12_-0.05.F89
-rw-r--r-- 1 bjb2chen nooijen     648 Dec  4 10:32 /home/bjb2chen/gmsscr//AsH3cat_cct_gmcpt_C1_3st_diab_mode12_-0.05.F89.001
-rw-r--r-- 1 bjb2chen nooijen       0 Dec  4 10:28 /home/bjb2chen/gmsscr//AsH3cat_cct_gmcpt_C1_3st_diab_mode12_-0.05.F90
-rw-r--r-- 1 bjb2chen nooijen       0 Dec  4 10:28 /home/bjb2chen/gmsscr//AsH3cat_cct_gmcpt_C1_3st_diab_mode12_-0.05.F90.001
-rw-r--r-- 1 bjb2chen nooijen   13760 Dec  4 10:32 /home/bjb2chen/gmsscr//AsH3cat_cct_gmcpt_C1_3st_diab_mode12_-0.05.F91
-rw-r--r-- 1 bjb2chen nooijen   13760 Dec  4 10:32 /home/bjb2chen/gmsscr//AsH3cat_cct_gmcpt_C1_3st_diab_mode12_-0.05.F91.001
-rw-r--r-- 1 bjb2chen nooijen   22776 Dec  4 10:32 /home/bjb2chen/gmsscr//AsH3cat_cct_gmcpt_C1_3st_diab_mode12_-0.05.F92
-rw-r--r-- 1 bjb2chen nooijen   22776 Dec  4 10:32 /home/bjb2chen/gmsscr//AsH3cat_cct_gmcpt_C1_3st_diab_mode12_-0.05.F92.001
-rw-r--r-- 1 bjb2chen nooijen   23168 Dec  4 10:32 /home/bjb2chen/gmsscr//AsH3cat_cct_gmcpt_C1_3st_diab_mode12_-0.05.F93
-rw-r--r-- 1 bjb2chen nooijen   23168 Dec  4 10:32 /home/bjb2chen/gmsscr//AsH3cat_cct_gmcpt_C1_3st_diab_mode12_-0.05.F93.001
-rw-r--r-- 1 bjb2chen nooijen   22776 Dec  4 10:32 /home/bjb2chen/gmsscr//AsH3cat_cct_gmcpt_C1_3st_diab_mode12_-0.05.F94
-rw-r--r-- 1 bjb2chen nooijen   22776 Dec  4 10:32 /home/bjb2chen/gmsscr//AsH3cat_cct_gmcpt_C1_3st_diab_mode12_-0.05.F94.001
-rw-r--r-- 1 bjb2chen nooijen   13760 Dec  4 10:32 /home/bjb2chen/gmsscr//AsH3cat_cct_gmcpt_C1_3st_diab_mode12_-0.05.F95
-rw-r--r-- 1 bjb2chen nooijen   13760 Dec  4 10:32 /home/bjb2chen/gmsscr//AsH3cat_cct_gmcpt_C1_3st_diab_mode12_-0.05.F95.001
-rw-r--r-- 1 bjb2chen nooijen   39248 Dec  4 10:32 /home/bjb2chen/gmsscr//AsH3cat_cct_gmcpt_C1_3st_diab_mode12_-0.05.F96
-rw-r--r-- 1 bjb2chen nooijen   39248 Dec  4 10:32 /home/bjb2chen/gmsscr//AsH3cat_cct_gmcpt_C1_3st_diab_mode12_-0.05.F96.001
-rw-r--r-- 1 bjb2chen nooijen    1184 Dec  4 10:32 /home/bjb2chen/gmsscr//AsH3cat_cct_gmcpt_C1_3st_diab_mode12_-0.05.F97
-rw-r--r-- 1 bjb2chen nooijen    1184 Dec  4 10:32 /home/bjb2chen/gmsscr//AsH3cat_cct_gmcpt_C1_3st_diab_mode12_-0.05.F97.001
-rw-r--r-- 1 bjb2chen nooijen    9808 Dec  4 10:31 /home/bjb2chen/gmsscr//AsH3cat_cct_gmcpt_C1_3st_diab_mode12_-0.05.F98
-rw-r--r-- 1 bjb2chen nooijen    9808 Dec  4 10:31 /home/bjb2chen/gmsscr//AsH3cat_cct_gmcpt_C1_3st_diab_mode12_-0.05.F98.001
-rw-r--r-- 1 bjb2chen nooijen   30264 Dec  4 10:32 /home/bjb2chen/gmsscr//AsH3cat_cct_gmcpt_C1_3st_diab_mode12_-0.05.F99
-rw-r--r-- 1 bjb2chen nooijen   30264 Dec  4 10:32 /home/bjb2chen/gmsscr//AsH3cat_cct_gmcpt_C1_3st_diab_mode12_-0.05.F99.001
ls: No match.
ls: No match.
ls: No match.
Mon 04 Dec 2023 10:32:23 AM EST
0.331u 0.068s 3:35.42 0.1%	0+0k 288+496io 0pf+0w
