----- GAMESS execution script 'rungms' -----
This job is running on host io002
under operating system Linux at Mon 04 Dec 2023 10:28:47 AM EST
Available scratch disk space (Kbyte units) at beginning of the job is
Filesystem             1K-blocks       Used Available Use% Mounted on
helmholtz.nlogn:/home 6391504896 5230539776 838825984  87% /home
GAMESS temporary binary files will be written to /home/bjb2chen/gmsscr/
GAMESS supplementary output files will be written to /home/bjb2chen/gamess/vibronics/ash3/4state
Copying input file AsH3cat_cct_gmcpt_C1_3st_diab_mode3_-0.05_mode1_+0.05.inp to your run's scratch directory...
cp AsH3cat_cct_gmcpt_C1_3st_diab_mode3_-0.05_mode1_+0.05.inp /home/bjb2chen/gmsscr//AsH3cat_cct_gmcpt_C1_3st_diab_mode3_-0.05_mode1_+0.05.F05
unset echo
 
Assuming a single but multicore node.
 
/home/bjb2chen/gamess/ddikick.x /home/bjb2chen/gamess/gamess.00.x AsH3cat_cct_gmcpt_C1_3st_diab_mode3_-0.05_mode1_+0.05 -ddi 1 2 io002:cpus=2 -scr /home/bjb2chen/gmsscr/

 Distributed Data Interface kickoff program.
 Initiating 2 compute processes on 1 nodes to run the following command:
 /home/bjb2chen/gamess/gamess.00.x AsH3cat_cct_gmcpt_C1_3st_diab_mode3_-0.05_mode1_+0.05 

          ******************************************************
          *         GAMESS VERSION = 02 AUG 2018 (R2)         *
          *             FROM IOWA STATE UNIVERSITY             *
          * M.W.SCHMIDT, K.K.BALDRIDGE, J.A.BOATZ, S.T.ELBERT, *
          *   M.S.GORDON, J.H.JENSEN, S.KOSEKI, N.MATSUNAGA,   *
          *          K.A.NGUYEN, S.J.SU, T.L.WINDUS,           *
          *       TOGETHER WITH M.DUPUIS, J.A.MONTGOMERY       *
          *         J.COMPUT.CHEM.  14, 1347-1363(1993)        *
          **************** 64 BIT LINUX VERSION ****************

  SINCE 1993, STUDENTS AND POSTDOCS WORKING AT IOWA STATE UNIVERSITY
  AND ALSO IN THEIR VARIOUS JOBS AFTER LEAVING ISU HAVE MADE IMPORTANT
  CONTRIBUTIONS TO THE CODE:
     IVANA ADAMOVIC, CHRISTINE AIKENS, YURI ALEXEEV, POOJA ARORA,
     ANDREY ASADCHEV, ROB BELL, PRADIPTA BANDYOPADHYAY, JONATHAN BENTZ,
     BRETT BODE, KURT BRORSEN, CALEB CARLIN, GALINA CHABAN, WEI CHEN,
     CHEOL HO CHOI, PAUL DAY, ALBERT DEFUSCO, NUWAN DESILVA, TIM DUDLEY,
     DMITRI FEDOROV, ALEX FINDLATER, GRAHAM FLETCHER, MARK FREITAG,
     KURT GLAESEMANN, ANASTASIA GUININA,
     DAN KEMP, GRANT MERRILL, NORIYUKI MINEZAWA, JONATHAN MULLIN,
     TAKESHI NAGATA, SEAN NEDD, HEATHER NETZLOFF, BOSILJKA NJEGIC, RYAN OLSON,
     MIKE PAK, BUU PHAM,
     SPENCER PRUITT, LUKE ROSKOP, JIM SHOEMAKER, LYUDMILA SLIPCHENKO,
     TONY SMITH, SAROM SOK LEANG, JIE SONG, TETSUYA TAKETSUGU, SIMON WEBB,
     PENG XU, SOOHAENG YOO, FEDERICO ZAHARIEV

  ADDITIONAL CODE HAS BEEN PROVIDED BY COLLABORATORS IN OTHER GROUPS:
     IOWA STATE UNIVERSITY:
          JOE IVANIC, AARON WEST, LAIMUTIS BYTAUTAS, KLAUS RUEDENBERG
     UNIVERSITY OF TOKYO: KIMIHIKO HIRAO, TAKAHITO NAKAJIMA,
          TAKAO TSUNEDA, MUNEAKI KAMIYA, SUSUMU YANAGISAWA,
          KIYOSHI YAGI, MAHITO CHIBA, SEIKEN TOKURA, NAOAKI KAWAKAMI
     UNIVERSITY OF AARHUS: FRANK JENSEN
     UNIVERSITY OF IOWA: VISVALDAS KAIRYS, HUI LI
     NATIONAL INST. OF STANDARDS AND TECHNOLOGY: WALT STEVENS, DAVID GARMER
     UNIVERSITY OF PISA: BENEDETTA MENNUCCI, JACOPO TOMASI
     UNIVERSITY OF MEMPHIS: HENRY KURTZ, PRAKASHAN KORAMBATH
     UNIVERSITY OF ALBERTA: TOBY ZENG, MARIUSZ KLOBUKOWSKI
     UNIVERSITY OF NEW ENGLAND: MARK SPACKMAN
     MIE UNIVERSITY: HIROAKI UMEDA
     NAT. INST. OF ADVANCED INDUSTRIAL SCIENCE AND TECHNOLOGY: KAZUO KITAURA
     MICHIGAN STATE UNIVERSITY:
          KAROL KOWALSKI, MARTA WLOCH, JEFFREY GOUR, JESSE LUTZ,
          WEI LI, JUN SHEN, J. EMILIANO DEUSTUA, PIOTR PIECUCH
     UNIVERSITY OF MINNESOTA:
          YINAN SHU
     UNIVERSITY OF SILESIA: MONIKA MUSIAL, STANISLAW KUCHARSKI
     FACULTES UNIVERSITAIRES NOTRE-DAME DE LA PAIX:
          OLIVIER QUINET, BENOIT CHAMPAGNE
     UNIVERSITY OF CALIFORNIA - SANTA BARBARA: BERNARD KIRTMAN
     INSTITUTE FOR MOLECULAR SCIENCE:
          KAZUYA ISHIMURA, MICHIO KATOUDA, AND SHIGERU NAGASE
     UNIVERSITY OF NOTRE DAME: ANNA POMOGAEVA, DAN CHIPMAN
     KYUSHU UNIVERSITY:
          HARUYUKI NAKANO,
          FENG LONG GU, JACEK KORCHOWIEC, MARCIN MAKOWSKI, AND YURIKO AOKI,
          HIROTOSHI MORI AND EISAKU MIYOSHI
     PENNSYLVANIA STATE UNIVERSITY:
          TZVETELIN IORDANOV, CHET SWALINA, JONATHAN SKONE,
          SHARON HAMMES-SCHIFFER
     WASEDA UNIVERSITY:
          MASATO KOBAYASHI, TOMOKO AKAMA, TSUGUKI TOUMA,
          TAKESHI YOSHIKAWA, YASUHIRO IKABATA, JUNJI SEINO,
          YUYA NAKAJIMA, HIROMI NAKAI
     NANJING UNIVERSITY: SHUHUA LI
     UNIVERSITY OF NEBRASKA:
          PEIFENG SU, DEJUN SI, NANDUN THELLAMUREGE, YALI WANG, HUI LI
     UNIVERSITY OF ZURICH: ROBERTO PEVERATI, KIM BALDRIDGE
     N. COPERNICUS UNIVERSITY AND JACKSON STATE UNIVERSITY:
          MARIA BARYSZ
     UNIVERSITY OF COPENHAGEN: Jimmy Kromann, CASPER STEINMANN
     TOKYO INSTITUTE OF TECHNOLOGY: HIROYA NAKATA
     NAGOYA UNIVERSITY: YOSHIO NISHIMOTO, STEPHAN IRLE
     MOSCOW STATE UNIVERSITY: VLADIMIR MIRONOV


 PARALLEL VERSION RUNNING ON        2 PROCESSORS IN        1 NODES.

 EXECUTION OF GAMESS BEGUN Mon Dec  4 10:28:47 2023

            ECHO OF THE FIRST FEW INPUT CARDS -
 INPUT CARD> !Step 4: Calculation using REFDET                                              
 INPUT CARD> $system kdiag=3 mwords=250 memddi=8000 parall=.t. $end                         
 INPUT CARD> $contrl runtyp=energy ispher=1 $end                                            
 INPUT CARD> $contrl icut=9 itol=20 inttyp=rysquad qmttol=1.0d-05 nosym=1 $end              
 INPUT CARD> $scf    npunch=2 conv=1.0d-06 dirscf=.t. diis=.t. soscf=.f. ethrsh=10.0 $end   
 INPUT CARD> $contrl scftyp=mcscf  mult=2 maxit=200 icharg=1 mplevl=2 $end                  
 INPUT CARD> $guess  guess=moread norb=85 purify=.t. $end                                   
 INPUT CARD> $basis  gbasis=cct $end                                                        
 INPUT CARD> $mcscf  cistep=gmcci fullnr=.t. finci=mos                                      
 INPUT CARD>         acurcy=1.d-6 maxit=200 $end                                            
 INPUT CARD> $trans  dirtrf=.t. $end                                                        
 INPUT CARD> $mrmp   mrpt=gmcpt rdvecs=.f. $end                                             
 INPUT CARD> $gmcpt  nmofzc=5 nmodoc=9 nmoact=7 nelact=7 stsym(1)=A                         
 INPUT CARD>         reftyp=ormas nspace=1 mstart(1)=15 mine(1)=7 maxe(1)=7                 
 INPUT CARD>         kstate(1)=1,1,1,1                                                      
 INPUT CARD>         wstate(1)=1,1,1,1                                                      
 INPUT CARD>         iwgt=0 thrwgt=-1.0 krot=.f. kszdoe=.f. knospn=.f.                      
 INPUT CARD>         thrde=-1.0 edshft=0.02 $end                                            
 INPUT CARD> $statpt hssend=.t. $end                                                        
 INPUT CARD> $end                                                                           
 INPUT CARD>--- Semi-canonical MOs --- generated at Mon Dec  4 10:21:58 2023                
 INPUT CARD> $VEC                                                                           
 INPUT CARD> 1  1 9.99999416E-01 7.29973887E-07-3.99440478E-06-4.81875831E-06 1.63484706E-05
 INPUT CARD> 1  2 5.36732169E-06-0.00000000E+00-0.00000000E+00-0.00000000E+00 4.03838885E-11
 INPUT CARD> 1  3-0.00000000E+00-0.00000000E+00 7.96211074E-11 1.14517212E-11-0.00000000E+00
 INPUT CARD> 1  4-1.40849369E-11-0.00000000E+00-0.00000000E+00-2.21867430E-11-0.00000000E+00
 INPUT CARD> 1  5-0.00000000E+00 1.08959399E-07 1.08961145E-07-2.17920544E-07-0.00000000E+00
 INPUT CARD> 1  6-0.00000000E+00-0.00000000E+00 7.02728157E-08 7.02573272E-08-1.40530143E-07
 INPUT CARD> 1  7-0.00000000E+00-0.00000000E+00-0.00000000E+00 8.61676265E-08 8.61266319E-08
 INPUT CARD> 1  8-1.72294258E-07-0.00000000E+00-0.00000000E+00-0.00000000E+00 1.61185015E-07
 INPUT CARD> 1  9-0.00000000E+00-0.00000000E+00-0.00000000E+00-0.00000000E+00-2.16246982E-07
 INPUT CARD> 1 10-0.00000000E+00-0.00000000E+00-0.00000000E+00-0.00000000E+00-2.29650252E-07
 INPUT CARD> 1 11-4.66898658E-07-1.12343498E-06-6.64097518E-08 1.15015824E-07-0.00000000E+00
 INPUT CARD> 1 12-1.90369794E-07 3.29734733E-07-0.00000000E+00 4.67684240E-08-2.10541491E-07
 INPUT CARD> 1 13 1.63773067E-07 2.57316182E-07-0.00000000E+00-0.00000000E+00-2.29652599E-07
 INPUT CARD> 1 14-4.66879487E-07-1.12342770E-06-6.64102175E-08-1.15016523E-07-0.00000000E+00
 INPUT CARD> 1 15-1.90364897E-07-3.29724918E-07-0.00000000E+00 4.67679470E-08-2.10540564E-07
 INPUT CARD> 1 16 1.63772617E-07-2.57315196E-07-0.00000000E+00-0.00000000E+00-2.29639944E-07
 INPUT CARD> 1 17-4.66987046E-07-1.12340031E-06 1.32807841E-07-0.00000000E+00-0.00000000E+00
 INPUT CARD> 1 18 3.80780830E-07-0.00000000E+00-0.00000000E+00-3.39206184E-07 1.75440103E-07
 INPUT CARD> 1 19 1.63766080E-07-0.00000000E+00-0.00000000E+00-0.00000000E+00               
 INPUT CARD> 2  1 2.72313662E-06 1.00010341E+00 1.34746909E-04 1.43214017E-04-4.26044547E-04
 INPUT CARD> 2  2-1.40486446E-04 7.10299112E-11-7.88863849E-11-0.00000000E+00-5.42197215E-11
 INPUT CARD> 2  3-1.27361486E-11-0.00000000E+00-1.68049866E-10-3.19745914E-11-0.00000000E+00
 INPUT CARD> 2  4 2.95588732E-11-0.00000000E+00-0.00000000E+00-0.00000000E+00-0.00000000E+00
 INPUT CARD> 2  5-0.00000000E+00-6.69941071E-07-6.69957164E-07 1.33989824E-06-0.00000000E+00
 INPUT CARD> 2  6-0.00000000E+00-0.00000000E+00-2.23303604E-06-2.23305293E-06 4.46608898E-06
 INPUT CARD> 2  7-0.00000000E+00-0.00000000E+00-0.00000000E+00-1.84537905E-06-1.84515653E-06
 INPUT CARD> 2  8 3.69053558E-06 1.25718203E-11-0.00000000E+00-0.00000000E+00-6.15992627E-06
 INPUT CARD> 2  9-0.00000000E+00-0.00000000E+00-0.00000000E+00-0.00000000E+00 8.26439636E-06
  250000000 WORDS OF MEMORY AVAILABLE

     BASIS OPTIONS
     -------------
     GBASIS=CCT          IGAUSS=       0      POLAR=NONE    
     NDFUNC=       0     NFFUNC=       0     DIFFSP=       F
     NPFUNC=       0      DIFFS=       F     BASNAM=        


     RUN TITLE
     ---------
 AsH3+ calculation at 4 states                                                   

 THE POINT GROUP OF THE MOLECULE IS C1      
 THE ORDER OF THE PRINCIPAL AXIS IS     0

 ATOM      ATOMIC                      COORDINATES (BOHR)
           CHARGE         X                   Y                   Z
 AS         33.0    -0.0000043134        0.0000003222       -0.0003770715
 H           1.0    -1.3842567376        2.3975957959        0.1323845860
 H           1.0    -1.3842566617       -2.3975951934       -0.1248059449
 H           1.0     2.7685004809        0.0000003640        0.0204504722

          INTERNUCLEAR DISTANCES (ANGS.)
          ------------------------------

                1 AS         2 H          3 H          4 H     

   1 AS      0.0000000    1.4667133 *  1.4665087 *  1.4650712 *
   2 H       1.4667133 *  0.0000000    2.5411532 *  2.5381972 *
   3 H       1.4665087 *  2.5411532 *  0.0000000    2.5386699 *
   4 H       1.4650712 *  2.5381972 *  2.5386699 *  0.0000000  

  * ... LESS THAN  3.000


     ATOMIC BASIS SET
     ----------------
 THE CONTRACTED PRIMITIVE FUNCTIONS HAVE BEEN UNNORMALIZED
 THE CONTRACTED BASIS FUNCTIONS ARE NOW NORMALIZED TO UNITY

  SHELL TYPE  PRIMITIVE        EXPONENT          CONTRACTION COEFFICIENT(S)

 AS        

      1   S       1       8482340.0000000    0.000006800003
      1   S       2       1270151.0000000    0.000052800023
      1   S       3        289057.0000000    0.000277400122
      1   S       4         81879.8500000    0.001170200514
      1   S       5         26716.5600000    0.004242101862
      1   S       6          9647.5840000    0.013655705995
      1   S       7          3764.1190000    0.039339917271
      1   S       8          1561.5660000    0.099929243872
      1   S       9           680.8147000    0.212155593142
      1   S      10           309.2412000    0.336386747683
      1   S      11           145.2574000    0.315512638518
      1   S      12            69.7390500    0.118131251863
      1   S      13            31.7703200    0.008007603516
      1   S      14            15.3917600    0.000329300145
      1   S      15             7.3415260   -0.000152300067
      1   S      16             3.3237160    0.000024700011
      1   S      17             1.4858670   -0.000036600016
      1   S      18             0.2115000   -0.000009400004

      2   S      19       8482340.0000000   -0.000002099844
      2   S      20       1270151.0000000   -0.000016498771
      2   S      21        289057.0000000   -0.000086593551
      2   S      22         81879.8500000   -0.000365272798
      2   S      23         26716.5600000   -0.001330800894
      2   S      24          9647.5840000   -0.004308979105
      2   S      25          3764.1190000   -0.012696354487
      2   S      26          1561.5660000   -0.033613496762
      2   S      27           680.8147000   -0.078941121158
      2   S      28           309.2412000   -0.151434522485
      2   S      29           145.2574000   -0.204186194004
      2   S      30            69.7390500   -0.055732549529
      2   S      31            31.7703200    0.418729516699
      2   S      32            15.3917600    0.575833316987
      2   S      33             7.3415260    0.169671564351
      2   S      34             3.3237160    0.006065748276
      2   S      35             1.4858670    0.001760368903
      2   S      36             0.2115000    0.000231582754

      3   S      37       8482340.0000000    0.000000818623
      3   S      38       1270151.0000000    0.000006548987
      3   S      39        289057.0000000    0.000034484509
      3   S      40         81879.8500000    0.000145612630
      3   S      41         26716.5600000    0.000530877249
      3   S      42          9647.5840000    0.001719313712
      3   S      43          3764.1190000    0.005083344082
      3   S      44          1561.5660000    0.013519053150
      3   S      45           680.8147000    0.032188884481
      3   S      46           309.2412000    0.063284292808
      3   S      47           145.2574000    0.090004159277
      3   S      48            69.7390500    0.026354351138
      3   S      49            31.7703200   -0.251262012099
      3   S      50            15.3917600   -0.520907644337
      3   S      51             7.3415260   -0.056868639208
      3   S      52             3.3237160    0.724870110338
      3   S      53             1.4858670    0.535280112340
      3   S      54             0.2115000   -0.011376408833

      4   S      55       8482340.0000000   -0.000000322182
      4   S      56       1270151.0000000   -0.000002899636
      4   S      57        289057.0000000   -0.000014981451
      4   S      58         81879.8500000   -0.000063147623
      4   S      59         26716.5600000   -0.000230198862
      4   S      60          9647.5840000   -0.000745689664
      4   S      61          3764.1190000   -0.002204850817
      4   S      62          1561.5660000   -0.005870151514
      4   S      63           680.8147000   -0.013996219653
      4   S      64           309.2412000   -0.027636106289
      4   S      65           145.2574000   -0.039550065282
      4   S      66            69.7390500   -0.011844045553
      4   S      67            31.7703200    0.115999445484
      4   S      68            15.3917600    0.253920137348
      4   S      69             7.3415260    0.022886825089
      4   S      70             3.3237160   -0.459365613804
      4   S      71             1.4858670   -0.625893951029
      4   S      72             0.2115000    1.046339525967

      5   S      73             0.4210860    1.000000000000

      6   S      74             0.0889740    1.000000000000

      7   P      75          7423.8610000    0.000459888095
      7   P      76          1759.5170000    0.003982196918
      7   P      77           570.2292000    0.021463244409
      7   P      78           216.5800000    0.082459565479
      7   P      79            90.7342500    0.223884404601
      7   P      80            40.3087900    0.392060251256
      7   P      81            18.5555000    0.354214630915
      7   P      82             8.3965430    0.104861385592
      7   P      83             3.7673670    0.003366312861
      7   P      84             1.6297010    0.001849452126
      7   P      85             0.2225030    0.000229694054

      8   P      86          7423.8610000   -0.000183933273
      8   P      87          1759.5170000   -0.001603623364
      8   P      88           570.2292000   -0.008714684634
      8   P      89           216.5800000   -0.034482567311
      8   P      90            90.7342500   -0.097731519242
      8   P      91            40.3087900   -0.183894927481
      8   P      92            18.5555000   -0.150374370146
      8   P      93             8.3965430    0.201569541112
      8   P      94             3.7673670    0.550783570924
      8   P      95             1.6297010    0.395483295494
      8   P      96             0.2225030   -0.005537068181

      9   P      97          7423.8610000    0.000067575484
      9   P      98          1759.5170000    0.000590735054
      9   P      99           570.2292000    0.003209920148
      9   P     100           216.5800000    0.012757201241
      9   P     101            90.7342500    0.036296841475
      9   P     102            40.3087900    0.069067055648
      9   P     103            18.5555000    0.055084858236
      9   P     104             8.3965430   -0.092951347783
      9   P     105             3.7673670   -0.256062306212
      9   P     106             1.6297010   -0.211535143443
      9   P     107             0.2225030    0.991664800915

     10   P     108             0.5682630    1.000000000000

     11   P     109             0.0804050    1.000000000000

     12   D     110           321.0196000    0.001738948853
     12   D     111            96.2493100    0.014620594557
     12   D     112            36.6449600    0.064875906626
     12   D     113            15.4939600    0.184323725081
     12   D     114             6.8911380    0.331417629149
     12   D     115             3.0548310    0.389664464481
     12   D     116             1.3142410    0.283997092847

     13   D     117             0.5134300    1.000000000000

     14   D     118             0.1877000    1.000000000000

     15   F     119             0.4158000    1.000000000000

 H         

     16   S     120            33.8700000    0.025494863235
     16   S     121             5.0950000    0.190362765893
     16   S     122             1.1590000    0.852162022245

     17   S     123             0.3258000    1.000000000000

     18   S     124             0.1027000    1.000000000000

     19   P     125             1.4070000    1.000000000000

     20   P     126             0.3880000    1.000000000000

     21   D     127             1.0570000    1.000000000000

 H         

     22   S     128            33.8700000    0.025494863235
     22   S     129             5.0950000    0.190362765893
     22   S     130             1.1590000    0.852162022245

     23   S     131             0.3258000    1.000000000000

     24   S     132             0.1027000    1.000000000000

     25   P     133             1.4070000    1.000000000000

     26   P     134             0.3880000    1.000000000000

     27   D     135             1.0570000    1.000000000000

 H         

     28   S     136            33.8700000    0.025494863235
     28   S     137             5.0950000    0.190362765893
     28   S     138             1.1590000    0.852162022245

     29   S     139             0.3258000    1.000000000000

     30   S     140             0.1027000    1.000000000000

     31   P     141             1.4070000    1.000000000000

     32   P     142             0.3880000    1.000000000000

     33   D     143             1.0570000    1.000000000000

 TOTAL NUMBER OF BASIS SET SHELLS             =   33
 NUMBER OF CARTESIAN GAUSSIAN BASIS FUNCTIONS =   94
 NOTE: THIS RUN WILL RESTRICT THE MO VARIATION SPACE TO SPHERICAL HARMONICS.
 THE NUMBER OF ORBITALS KEPT IN THE VARIATIONAL SPACE WILL BE PRINTED LATER.
 NUMBER OF ELECTRONS                          =   35
 CHARGE OF MOLECULE                           =    1
 SPIN MULTIPLICITY                            =    2
 NUMBER OF OCCUPIED ORBITALS (ALPHA)          =   18
 NUMBER OF OCCUPIED ORBITALS (BETA )          =   17
 TOTAL NUMBER OF ATOMS                        =    4
 THE NUCLEAR REPULSION ENERGY IS       36.3585096838

     $CONTRL OPTIONS
     ---------------
 SCFTYP=MCSCF        RUNTYP=ENERGY       EXETYP=RUN     
 MPLEVL=       2     CITYP =NONE         CCTYP =NONE         VBTYP =NONE    
 DFTTYP=NONE         TDDFT =NONE    
 MULT  =       2     ICHARG=       1     NZVAR =       0     COORD =UNIQUE  
 PP    =NONE         RELWFN=NONE         LOCAL =NONE         NUMGRD=       F
 ISPHER=       1     NOSYM =       1     MAXIT =     200     UNITS =ANGS    
 PLTORB=       F     MOLPLT=       F     AIMPAC=       F     FRIEND=        
 NPRINT=       7     IREST =       0     GEOM  =INPUT   
 NORMF =       0     NORMP =       0     ITOL  =      20     ICUT  =       9
 INTTYP=RYSQUAD      GRDTYP=BEST         QMTTOL= 1.0E-05

     $SYSTEM OPTIONS
     ---------------
  REPLICATED MEMORY=   250000000 WORDS (ON EVERY NODE).
 DISTRIBUTED MEMDDI=        8000 MILLION WORDS IN AGGREGATE,
 MEMDDI DISTRIBUTED OVER   2 PROCESSORS IS  4000000000 WORDS/PROCESSOR.
 TOTAL MEMORY REQUESTED ON EACH PROCESSOR=  4250000000 WORDS.
 TIMLIM=      525600.00 MINUTES, OR     365.0 DAYS.
 PARALL= T  BALTYP=  DLB     KDIAG=    3  COREFL= F
 MXSEQ2=     300 MXSEQ3=     150  mem10=         0

          ----------------
          PROPERTIES INPUT
          ----------------

     MOMENTS            FIELD           POTENTIAL          DENSITY
 IEMOM =       1   IEFLD =       0   IEPOT =       0   IEDEN =       0
 WHERE =COMASS     WHERE =NUCLEI     WHERE =NUCLEI     WHERE =NUCLEI  
 OUTPUT=BOTH       OUTPUT=BOTH       OUTPUT=BOTH       OUTPUT=BOTH    
 IEMINT=       0   IEFINT=       0                     IEDINT=       0
                                                       MORB  =       0

     -------------------------------
     INTEGRAL TRANSFORMATION OPTIONS
     -------------------------------
     NWORD  =            0
     CUTOFF = 1.0E-09     MPTRAN =       0
     DIRTRF =       T     AOINTS =DUP     

          ----------------------
          MCSCF INPUT PARAMETERS
          ----------------------
 CONVERGER SELECTION: FOCAS = F  SOSCF = F  FULLNR = T  QUD = F  JACOBI = F
 SECULAR EQUATION METHOD CISTEP = GMCCI   
 --- GENERAL INPUT OPTIONS:
 MAXIT =     200  MICIT =       1  ACURCY= 1.000E-06
 DAMP  =   0.000  CANONC=       T  ENGTOL= 1.000E-10
 EKT   =       F  NPUNCH=       2  NWORD =         0
 REGENERATE CI AFTER CONVERGENCE = NONE    
 DIABATIZATION AFTER CONVERGENCE =        F
 --- INPUT FOR FULLNR CONVERGER:
 METHOD=DM2       FORS  =       F  DROPC =       T
 LINSER=       F  FCORE =       F  NORB  =      94

          ----------------------
          INTEGRAL INPUT OPTIONS
          ----------------------
 NOPK  =       1 NORDER=       0 SCHWRZ=       T

 ------------------------------------------
 MULTIREFERENCE PERTURBATION THEORY CONTROL
 ------------------------------------------
 MRPT=GMCPT    READ CONVERGED MCSCF VECTORS= F


     ------------------------------------------
     THE POINT GROUP IS C1 , NAXIS= 1, ORDER= 1
     ------------------------------------------

 -- VARIATIONAL SPACE WILL BE RESTRICTED TO PURE SPHERICAL HARMONICS ONLY --
 AFTER EXCLUDING CONTAMINANT COMBINATIONS FROM THE CARTESIAN GAUSSIAN BASIS
 SET, THE NUMBER OF SPHERICAL HARMONICS KEPT IN THE VARIATION SPACE IS   85

     DIMENSIONS OF THE SYMMETRY SUBSPACES ARE
 A   =   85

 ..... DONE SETTING UP THE RUN .....
 CPU     0: STEP CPU TIME=     0.08 TOTAL CPU TIME=          0.1 (      0.0 MIN)
 TOTAL WALL CLOCK TIME=          0.3 SECONDS, CPU UTILIZATION IS    25.00%

          ********************
          1 ELECTRON INTEGRALS
          ********************
 TIME TO DO   DIPOLE INTEGRALS=      0.01
 ...... END OF ONE-ELECTRON INTEGRALS ......
 CPU     0: STEP CPU TIME=     0.01 TOTAL CPU TIME=          0.1 (      0.0 MIN)
 TOTAL WALL CLOCK TIME=          0.3 SECONDS, CPU UTILIZATION IS    26.47%

          -------------
          GUESS OPTIONS
          -------------
          GUESS =MOREAD            NORB  =      85          NORDER=       0
          MIX   =       F          PRTMO =       F          PUNMO =       F
          TOLZ  = 1.0E-08          TOLE  = 1.0E-05
          SYMDEN=       F          PURIFY=       T

 INITIAL GUESS ORBITALS GENERATED BY MOREAD   ROUTINE.

 STATISTICS FOR GENERATION OF SYMMETRY ORBITAL -Q- MATRIX
 NUMBER OF CARTESIAN ATOMIC ORBITALS=         94
 NUMBER OF SPHERICAL CONTAMINANTS DROPPED=     9
 NUMBER OF LINEARLY DEPENDENT MOS DROPPED=     0
 TOTAL NUMBER OF MOS IN VARIATION SPACE=      85
 ORBITAL PURIFICATION WILL OCCUR

 SYMMETRIES FOR INITIAL GUESS ORBITALS FOLLOW.   BOTH SET(S).
    18 ORBITALS ARE OCCUPIED (   14 CORE ORBITALS).
     1=A        2=A        3=A        4=A        5=A        6=A        7=A   
     8=A        9=A       10=A       11=A       12=A       13=A       14=A   
    15=A       16=A       17=A       18=A       19=A       20=A       21=A   
    22=A       23=A       24=A       25=A       26=A       27=A       28=A   
    29=A       30=A       31=A       32=A       33=A       34=A       35=A   
    36=A       37=A       38=A       39=A       40=A       41=A       42=A   
    43=A       44=A       45=A       46=A       47=A       48=A       49=A   
    50=A       51=A       52=A       53=A       54=A       55=A       56=A   
    57=A       58=A       59=A       60=A       61=A       62=A       63=A   
    64=A       65=A       66=A       67=A       68=A       69=A       70=A   
    71=A       72=A       73=A       74=A       75=A       76=A       77=A   
    78=A       79=A       80=A       81=A       82=A       83=A       84=A   
    85=A   
 ...... END OF INITIAL ORBITAL SELECTION ......
 CPU     0: STEP CPU TIME=     0.10 TOTAL CPU TIME=          0.2 (      0.0 MIN)
 TOTAL WALL CLOCK TIME=          0.5 SECONDS, CPU UTILIZATION IS    40.43%

                    ----------------------
                    AO INTEGRAL TECHNOLOGY
                    ----------------------
     S,P,L SHELL ROTATED AXIS INTEGRALS, REPROGRAMMED BY
        KAZUYA ISHIMURA (IMS) AND JOSE SIERRA (SYNSTAR).
     S,P,D,L SHELL ROTATED AXIS INTEGRALS PROGRAMMED BY
        KAZUYA ISHIMURA (INSTITUTE FOR MOLECULAR SCIENCE).
     S,P,D,F,G SHELL TO TOTAL QUARTET ANGULAR MOMENTUM SUM 5,
        ERIC PROGRAM BY GRAHAM FLETCHER (ELORET AND NASA ADVANCED
        SUPERCOMPUTING DIVISION, AMES RESEARCH CENTER).
     S,P,D,F,G,L SHELL GENERAL RYS QUADRATURE PROGRAMMED BY
        MICHEL DUPUIS (PACIFIC NORTHWEST NATIONAL LABORATORY).

          --------------------
          2 ELECTRON INTEGRALS
          --------------------

 DIRECT SCF METHOD SKIPS INTEGRAL STORAGE ON DISK.
 DIRECT TRANSFORMATION SKIPS AO INTEGRAL STORAGE ON DISK.
  ...... END OF TWO-ELECTRON INTEGRALS .....
 STEP CPU TIME =     0.02 TOTAL CPU TIME =          0.2 (      0.0 MIN)
 TOTAL WALL CLOCK TIME=          0.5 SECONDS, CPU UTILIZATION IS    42.86%
 DDI: Creating Array [0] - 8836 x 231 = 2041116 words.
 DDI: Creating Array [1] - 64 x 4851 = 310464 words.
 DDI: Creating Array [2] - 231 x 231 = 53361 words.
 DDI: Creating Array [3] - 4465 x 231 = 1031415 words.

          -----------------
          MCSCF CALCULATION
          -----------------

 ----- NUCLEAR ENERGY ----- =        36.3585096838

     -------------------------------------------------
     GMC-PT/GMC-QDPT or general MCSCF input parameters
     -------------------------------------------------
 # of frozen core orbs. =         5 ->         0
 # of doubly occ. orbs. =         9
 # of active      orbs. =         7
 # of virtual     orbs. =        64
 # of active electrons  =         7
 # of states in CI      =         4
 Highest state in CI    =         4
 kstate =  1 1 1 1
 avecoe =  0.250 0.250 0.250 0.250
 State symmetry           = A           
 Assigned symmetry number = 1

 <<<Act. MO sym.: 1111111

 <<<Division of 1-ext.:  0 0
 <<<Division of 2-ext.:  0 1

 *** Reference space

 Reference type: ORMAS (= Occupation restricted multiple active space)
 # of orbitals          =  7
 # of minimum electrons =  7
 # of maximum electrons =  7
 State symmetry    =    1 (input)
 2*Sz              =    1 (input)
 Spin multiplicity =    2 (input)
 Dimension of reference space =      1225  (from      3432 walks)

 Dimension of reference space =      1225  (from      1225 walks)

 <<<Ionized spaces for Ref-CI:
      0:         1225 /   -1-0:         1960 /  0-1-0:         2891

 EVALUATING EXCHANGE INTEGRALS FOR DIRECT INTEGRAL TRANSFORMATION
 SCHWARZ INEQUALITY OVERHEAD:      4465 INTEGRALS, T=        0.11

     --------------------------------------------
     PARTIAL TWO ELECTRON INTEGRAL TRANSFORMATION
     --------------------------------------------

 NUMBER OF CORE MOLECULAR ORBITALS     =   14
 NUMBER OF OCCUPIED MOLECULAR ORBITALS =   21
 TOTAL NUMBER OF MOLECULAR ORBITALS    =   85
 TOTAL NUMBER OF ATOMIC ORBITALS       =   94
 THRESHOLD FOR KEEPING TRANSFORMED 2E- INTEGRALS = 1.000E-09

 -------------------------------     ------------------------------
 DISTRIBUTED DATA TRANSFORMATION     PROGRAM WRITTEN BY G. FLETCHER
 -------------------------------     ------------------------------

 THE DISTRIBUTED MEMORY REQUIRED FOR THIS STEP IS MEMDDI=         4 MWORDS
 CREATING DISTRIBUTED STORAGE FOR [VIR OCC|VIR OCC] INTEGRALS
 CREATING DISTRIBUTED STORAGE FOR [VIR OCC|OCC OCC] INTEGRALS
 CREATING DISTRIBUTED STORAGE FOR [OCC OCC|OCC OCC] INTEGRALS
 CREATING DISTRIBUTED STORAGE FOR [VIR VIR|OCC OCC] INTEGRALS
 FOR    2 PROCESSORS, THE REPLICATED MEMORY NEEDED IS      615709 WORDS.
 SCHWARZ INEQUALITY OVERHEAD:      4465 INTEGRALS, T=        0.10

      DIRECT 4-INDEX TRANSFORMATION 
      SCHWARZ INEQUALITY TEST SKIPPED       1082 INTEGRAL BLOCKS
 ----- FROZEN CORE ENERGY =     -2258.5362192339
 ... END OF INTEGRAL TRANSFORMATION ...
 CPU     0: STEP CPU TIME=    14.29 TOTAL CPU TIME=         14.5 (      0.2 MIN)
 TOTAL WALL CLOCK TIME=         15.0 SECONDS, CPU UTILIZATION IS    96.73%

     --------------------------------     -----------------------------
     MCHF NEWTON-RAPHSON OPTIMIZATION     CODE WRITTEN BY MICHEL DUPUIS
     --------------------------------     -----------------------------
     PARALLEL VERSION WRITTEN BY G. FLETCHER (ELORET)
     NASA ADVANCED SUPERCOMPUTING DIVISION, AMES RESEARCH CENTER

 NUMBER OF INDEPENDENT ORBITAL ROTATION PARAMETERS =  1436
 ..... DONE SOLVING NEWTON-RAPHSON EQUATIONS .....
 CPU     0: STEP CPU TIME=     1.00 TOTAL CPU TIME=         15.5 (      0.3 MIN)
 TOTAL WALL CLOCK TIME=         16.5 SECONDS, CPU UTILIZATION IS    94.05%
 ..... DONE WITH NTN-RPH ORBITAL ROTATIONS ..... 
 CPU     0: STEP CPU TIME=     0.00 TOTAL CPU TIME=         15.5 (      0.3 MIN)
 TOTAL WALL CLOCK TIME=         16.5 SECONDS, CPU UTILIZATION IS    94.00%
 MAXIMUM MEMORY USED BY NTN-RPH CODE WAS    197978 WORDS.

 ITER     TOTAL ENERGY      DEL(E)  LAGRANGIAN ASYMMETRY   SQCDF  MICIT   DAMP
   1    -2235.517059299 -0.517059299  0.005190   47   17 6.380E-04  1   0.0000
   2    -2235.517251077 -0.000191778  0.000225   26   19 9.332E-06  1   0.0000
   3    -2235.517252071 -0.000000994  0.000056   59   18 2.041E-06  1   0.0000
   4    -2235.517252187 -0.000000116  0.000017   59   18 7.905E-07  1   0.0000
   5    -2235.517252226 -0.000000039  0.000010   60   19 3.184E-07  1   0.0000
   6    -2235.517252241 -0.000000015  0.000007   60   19 1.282E-07  1   0.0000
   7    -2235.517252247 -0.000000006  0.000004   60   19 5.154E-08  1   0.0000
   8    -2235.517252250 -0.000000003  0.000003   60   19 2.092E-08  1   0.0000
   9    -2235.517252251 -0.000000001  0.000002   60   19 8.504E-09  1   0.0000
  10    -2235.517252251 -0.000000000  0.000001   60   19 3.402E-09  1   0.0000
  11    -2235.517252252 -0.000000000  0.000001   60   19 1.450E-09  1   0.0000

          --------------------
          LAGRANGIAN CONVERGED
          --------------------

 FINAL MCSCF ENERGY IS    -2235.5172522516 AFTER  11 ITERATIONS

 -MCCI- BASED ON OPTIMIZED ORBITALS
 ----------------------------------

 PLEASE NOTE: IF THE ACTIVE ORBITALS ARE CANONICALIZED BELOW,
 THE FOLLOWING CI EXPANSION COEFFICIENTS AND THE DENSITY DO NOT
 CORRESPOND TO THE PRINTED ORBITALS.  THE PRINTED EXPANSIONS MATCH
 THE ORBITALS USED DURING THE LAST ITERATION.  IF YOU WISH TO SEE
 CI EXPANSIONS BASED ON THE CANONICAL (OR NATURAL) ORBITALS, YOU
 MUST RUN A CI CALCULATION WITH THAT ORBITAL CHOICE READ IN $VEC.

 Averaged energy =   -2235.517252252

 State #    1  Energy =   -2235.693519730  S =  0.500

      Det      Coef    Occupancy (Ignoring core)
      ---      ----    --------- --------- -----
        1    0.976069  11110001110000
      107   -0.073558  11101000111000
      143    0.060953  11011001100100
      179    0.060862  10111001010100
      393    0.059123  10110101010010
      717    0.059140  11010011100001

 State #    2  Energy =   -2235.482174523  S =  0.500

      Det      Coef    Occupancy (Ignoring core)
      ---      ----    --------- --------- -----
        2    0.951020  11101001110000
      106   -0.172241  11110000111000
      110   -0.057403  01111000111000
      156    0.081353  11100011100100
      181   -0.080652  11100101010100
      212    0.064281  11101000110100
      387   -0.077435  11101001010010
      396    0.061199  10101101010010
      702    0.078072  11101001100001
      720    0.061061  11001011100001

 State #    3  Energy =   -2235.446704948  S =  0.500

      Det      Coef    Occupancy (Ignoring core)
      ---      ----    --------- --------- -----
        6    0.062449  11100101110000
       16   -0.099524  11100011110000
       36    0.804472  11110001101000
       38    0.058751  11011001101000
       39    0.083438  10111001101000
       52    0.077919  11010011101000
       71    0.504525  11110001011000
       73    0.083471  11011001011000
       74   -0.058889  10111001011000
      142   -0.101891  11101001100100
      177   -0.063786  11101001010100
      249    0.058831  10111001001100

 State #    4  Energy =   -2235.446609805  S =  0.500

      Det      Coef    Occupancy (Ignoring core)
      ---      ----    --------- --------- -----
        6   -0.099782  11100101110000
       16   -0.062193  11100011110000
       36    0.504273  11110001101000
       38   -0.083519  11011001101000
       39    0.058933  10111001101000
       71   -0.804872  11110001011000
       73    0.059018  11011001011000
       74    0.083573  10111001011000
       78    0.078422  10110101011000
      142   -0.063887  11101001100100
      177    0.101787  11101001010100
      248    0.058933  11011001001100

 DENSITY MATRIX OVER ACTIVE MO-S

             1           2           3           4           5

    1    1.9718774
    2    0.0000923   1.7202914
    3   -0.0000219  -0.0000235   1.7198920
    4   -0.0001366   0.0012080   0.0129036   1.2377702
    5    0.0034698  -0.0002993   0.0000706  -0.0038636   0.2906753
    6   -0.0000018   0.0006378   0.0000753  -0.0024729  -0.0011383
    7    0.0000404   0.0000735   0.0013519  -0.0263926  -0.0000181

             6           7

    6    0.0294307
    7    0.0000446   0.0300630

 FORMING THE "STANDARD FOCK OPERATOR" IN DIRECT AO INTEGRAL MODE...
 ONLY THE   14 CORE AND   64 VIRTUAL ORBITALS WILL BE CANONICALIZED

          ----------------------
          MCSCF NATURAL ORBITALS
          ----------------------

                      1          2          3          4          5
                 -432.8955   -56.6209   -50.4654   -50.4653   -50.4653
                     A          A          A          A          A   
    1  AS 1  S    0.999999   0.000003   0.000000   0.000000  -0.000000
    2  AS 1  S    0.000001   1.000103  -0.000013  -0.000000   0.000000
    3  AS 1  S   -0.000004   0.000134   0.000002   0.000000  -0.000000
    4  AS 1  S   -0.000005   0.000143   0.000001   0.000000  -0.000001
    5  AS 1  S    0.000016  -0.000426  -0.000001  -0.000000  -0.000000
    6  AS 1  S    0.000005  -0.000140  -0.000001   0.000000  -0.000000
    7  AS 1  X    0.000000  -0.000000  -0.004295  -0.365485   0.930834
    8  AS 1  Y   -0.000000  -0.000001  -0.053598   0.929589   0.364749
    9  AS 1  Z    0.000000   0.000013   0.998579   0.048323   0.023581
   10  AS 1  X    0.000000   0.000000  -0.000000   0.000001  -0.000002
   11  AS 1  Y    0.000000  -0.000000  -0.000000  -0.000002  -0.000001
   12  AS 1  Z   -0.000000   0.000001   0.000001  -0.000000  -0.000000
   13  AS 1  X    0.000000  -0.000000   0.000000   0.000032  -0.000082
   14  AS 1  Y   -0.000000  -0.000000   0.000000  -0.000081  -0.000032
   15  AS 1  Z   -0.000000   0.000000  -0.000002  -0.000004  -0.000002
   16  AS 1  X    0.000000  -0.000000   0.000002   0.000183  -0.000466
   17  AS 1  Y   -0.000000   0.000000   0.000024  -0.000465  -0.000182
   18  AS 1  Z    0.000000  -0.000000  -0.000446  -0.000024  -0.000012
   19  AS 1  X    0.000000  -0.000000   0.000000   0.000033  -0.000084
   20  AS 1  Y    0.000000  -0.000000   0.000004  -0.000084  -0.000033
   21  AS 1  Z    0.000000  -0.000000  -0.000069  -0.000004  -0.000002
   22  AS 1 XX    0.000000  -0.000001  -0.000001  -0.000001   0.000002
   23  AS 1 YY    0.000000  -0.000001  -0.000001   0.000001  -0.000002
   24  AS 1 ZZ   -0.000000   0.000001   0.000001   0.000000   0.000000
   25  AS 1 XY   -0.000000  -0.000000   0.000000  -0.000002  -0.000001
   26  AS 1 XZ    0.000000  -0.000000  -0.000000  -0.000000   0.000001
   27  AS 1 YZ    0.000000  -0.000000  -0.000000   0.000001   0.000000
   28  AS 1 XX    0.000000  -0.000002   0.000000   0.000020  -0.000052
   29  AS 1 YY    0.000000  -0.000002   0.000000  -0.000020   0.000051
   30  AS 1 ZZ   -0.000000   0.000004  -0.000000  -0.000000   0.000000
   31  AS 1 XY    0.000000   0.000000  -0.000000   0.000059   0.000023
   32  AS 1 XZ    0.000000  -0.000000   0.000000   0.000004   0.000000
   33  AS 1 YZ    0.000000  -0.000000   0.000000  -0.000002   0.000003
   34  AS 1 XX    0.000000  -0.000002  -0.000000   0.000006  -0.000015
   35  AS 1 YY    0.000000  -0.000002  -0.000000  -0.000006   0.000014
   36  AS 1 ZZ   -0.000000   0.000004   0.000000  -0.000000   0.000000
   37  AS 1 XY   -0.000000   0.000000  -0.000000   0.000017   0.000007
   38  AS 1 XZ    0.000000  -0.000000  -0.000000   0.000001   0.000000
   39  AS 1 YZ    0.000000  -0.000000  -0.000000  -0.000000   0.000001
   40  AS 1 XXX   0.000000  -0.000006   0.000000   0.000005  -0.000012
   41  AS 1 YYY  -0.000000  -0.000000  -0.000000  -0.000012  -0.000005
   42  AS 1 ZZZ  -0.000000   0.000000  -0.000000   0.000003   0.000001
   43  AS 1 XXY   0.000000  -0.000000  -0.000000  -0.000005  -0.000002
   44  AS 1 XXZ   0.000000  -0.000000   0.000000  -0.000000  -0.000001
   45  AS 1 YYX  -0.000000   0.000008  -0.000000   0.000002  -0.000005
   46  AS 1 YYZ  -0.000000   0.000000   0.000000  -0.000003  -0.000001
   47  AS 1 ZZX  -0.000000   0.000000  -0.000000  -0.000009   0.000022
   48  AS 1 ZZY   0.000000   0.000000   0.000000   0.000021   0.000008
   49  AS 1 XYZ  -0.000000   0.000001  -0.000000   0.000001  -0.000002
   50  H  2  S   -0.000000   0.000006  -0.000000  -0.000014   0.000002
   51  H  2  S   -0.000000   0.000011  -0.000000   0.000068  -0.000010
   52  H  2  S   -0.000001   0.000029   0.000000   0.000046  -0.000007
   53  H  2  X   -0.000000   0.000002   0.000000   0.000008  -0.000002
   54  H  2  Y    0.000000  -0.000003  -0.000000  -0.000014   0.000002
   55  H  2  Z    0.000000  -0.000000   0.000001  -0.000001   0.000000
   56  H  2  X   -0.000000   0.000004  -0.000000   0.000035  -0.000007
   57  H  2  Y    0.000000  -0.000008   0.000000  -0.000061   0.000008
   58  H  2  Z    0.000000  -0.000000  -0.000005  -0.000003   0.000000
   59  H  2 XX    0.000000  -0.000001  -0.000000  -0.000004   0.000004
   60  H  2 YY   -0.000000   0.000005   0.000001   0.000026  -0.000007
   61  H  2 ZZ    0.000000  -0.000004  -0.000001  -0.000022   0.000003
   62  H  2 XY    0.000000  -0.000006  -0.000000  -0.000031   0.000003
   63  H  2 XZ    0.000000  -0.000000   0.000003  -0.000002   0.000000
   64  H  2 YZ   -0.000000   0.000001  -0.000005   0.000003  -0.000001
   65  H  3  S   -0.000000   0.000006  -0.000000   0.000009   0.000011
   66  H  3  S   -0.000000   0.000011  -0.000000  -0.000043  -0.000054
   67  H  3  S   -0.000001   0.000029   0.000000  -0.000029  -0.000037
   68  H  3  X   -0.000000   0.000002   0.000000  -0.000005  -0.000007
   69  H  3  Y   -0.000000   0.000003  -0.000000  -0.000009  -0.000011
   70  H  3  Z   -0.000000   0.000000   0.000001  -0.000000  -0.000001
   71  H  3  X   -0.000000   0.000004  -0.000000  -0.000021  -0.000029
   72  H  3  Y   -0.000000   0.000008   0.000000  -0.000039  -0.000048
   73  H  3  Z   -0.000000   0.000000  -0.000005  -0.000002  -0.000002
   74  H  3 XX    0.000000  -0.000001  -0.000000   0.000000   0.000005
   75  H  3 YY   -0.000000   0.000005  -0.000000  -0.000014  -0.000022
   76  H  3 ZZ    0.000000  -0.000004   0.000000   0.000014   0.000017
   77  H  3 XY   -0.000000   0.000006  -0.000000  -0.000021  -0.000023
   78  H  3 XZ   -0.000000   0.000000   0.000003  -0.000001  -0.000001
   79  H  3 YZ   -0.000000   0.000001   0.000005  -0.000002  -0.000002
   80  H  4  S   -0.000000   0.000006  -0.000000   0.000005  -0.000013
   81  H  4  S   -0.000000   0.000012  -0.000000  -0.000026   0.000065
   82  H  4  S   -0.000001   0.000029   0.000000  -0.000017   0.000044
   83  H  4  X    0.000000  -0.000004  -0.000000   0.000006  -0.000016
   84  H  4  Y   -0.000000   0.000000  -0.000000  -0.000001  -0.000000
   85  H  4  Z    0.000000  -0.000000   0.000001   0.000000  -0.000000
   86  H  4  X    0.000000  -0.000009   0.000000   0.000026  -0.000067
   87  H  4  Y   -0.000000  -0.000000   0.000000  -0.000002  -0.000001
   88  H  4  Z    0.000000  -0.000000  -0.000005   0.000000  -0.000001
   89  H  4 XX   -0.000000   0.000008   0.000000  -0.000015   0.000039
   90  H  4 YY    0.000000  -0.000004  -0.000000   0.000007  -0.000019
   91  H  4 ZZ    0.000000  -0.000004  -0.000000   0.000008  -0.000020
   92  H  4 XY    0.000000   0.000000   0.000000  -0.000004  -0.000001
   93  H  4 XZ   -0.000000   0.000000  -0.000006  -0.000000   0.000000
   94  H  4 YZ    0.000000  -0.000000   0.000000  -0.000000   0.000000

                      6          7          8          9         10
                   -8.3449    -6.1997    -6.1997    -6.1963    -2.4337
                     A          A          A          A          A   
    1  AS 1  S   -0.000085  -0.000000   0.000000  -0.000002   0.000000
    2  AS 1  S   -0.000608  -0.000003   0.000000  -0.000017   0.000003
    3  AS 1  S    0.975261  -0.000020   0.000001  -0.000138   0.000007
    4  AS 1  S   -0.001918  -0.000013   0.000000  -0.000055  -0.000001
    5  AS 1  S    0.036268   0.000006   0.000000   0.000039  -0.000010
    6  AS 1  S    0.004129   0.000004   0.000000   0.000017  -0.000005
    7  AS 1  X   -0.000000  -0.000105   0.000003  -0.000000   0.000215
    8  AS 1  Y    0.000000  -0.000003  -0.000105  -0.000002  -0.000011
    9  AS 1  Z   -0.000001  -0.000001  -0.000006   0.000032   0.000000
   10  AS 1  X    0.000006   0.973879  -0.031487  -0.003889   0.001042
   11  AS 1  Y   -0.000005   0.031235   0.972496  -0.052250  -0.000054
   12  AS 1  Z    0.000073   0.005562   0.052029   0.974273   0.000001
   13  AS 1  X   -0.000002  -0.000995   0.000033  -0.000002   0.004635
   14  AS 1  Y    0.000001  -0.000032  -0.000994  -0.000023  -0.000232
   15  AS 1  Z   -0.000009  -0.000006  -0.000053   0.000431   0.000006
   16  AS 1  X    0.000002   0.047769  -0.001545  -0.000186  -0.001885
   17  AS 1  Y   -0.000001   0.001532   0.047704  -0.002498   0.000097
   18  AS 1  Z    0.000015   0.000273   0.002552   0.046574  -0.000002
   19  AS 1  X    0.000002   0.002064  -0.000066  -0.000007  -0.002554
   20  AS 1  Y    0.000000   0.000067   0.002064  -0.000088   0.000128
   21  AS 1  Z    0.000005   0.000012   0.000110   0.001650  -0.000003
   22  AS 1 XX    0.000324   0.000612  -0.000020  -0.000021   0.836295
   23  AS 1 YY    0.000319  -0.000606   0.000016  -0.000021  -0.833515
   24  AS 1 ZZ   -0.000643  -0.000005   0.000004   0.000043  -0.002780
   25  AS 1 XY   -0.000000  -0.000025  -0.000694  -0.000000   0.048197
   26  AS 1 XZ    0.000004   0.000044  -0.000039   0.000003   0.009821
   27  AS 1 YZ    0.000060  -0.000036   0.000041  -0.000004  -0.051570
   28  AS 1 XX    0.000050  -0.000329   0.000011  -0.000004   0.073212
   29  AS 1 YY    0.000051   0.000327  -0.000011  -0.000004  -0.072967
   30  AS 1 ZZ   -0.000101   0.000002   0.000000   0.000007  -0.000245
   31  AS 1 XY   -0.000000   0.000012   0.000380  -0.000000   0.004220
   32  AS 1 XZ    0.000001   0.000002   0.000020   0.000002   0.000858
   33  AS 1 YZ    0.000009   0.000020   0.000004  -0.000001  -0.004514
   34  AS 1 XX   -0.000015  -0.000215   0.000007   0.000000   0.000452
   35  AS 1 YY   -0.000015   0.000214  -0.000007   0.000000  -0.000447
   36  AS 1 ZZ    0.000030   0.000001  -0.000001  -0.000001  -0.000006
   37  AS 1 XY   -0.000000   0.000008   0.000246   0.000000   0.000025
   38  AS 1 XZ   -0.000000  -0.000007   0.000013  -0.000001   0.000014
   39  AS 1 YZ   -0.000003   0.000013  -0.000005   0.000000  -0.000028
   40  AS 1 XXX   0.000049   0.000053  -0.000002  -0.000003   0.000444
   41  AS 1 YYY  -0.000000   0.000001   0.000052  -0.000017  -0.000019
   42  AS 1 ZZZ  -0.000000  -0.000001  -0.000011  -0.000213  -0.000003
   43  AS 1 XXY  -0.000000   0.000001   0.000024  -0.000008  -0.000010
   44  AS 1 XXZ   0.000000  -0.000000   0.000001   0.000144   0.000035
   45  AS 1 YYX  -0.000066   0.000024  -0.000001   0.000002   0.000186
   46  AS 1 YYZ  -0.000000   0.000002   0.000014   0.000142  -0.000031
   47  AS 1 ZZX  -0.000000  -0.000095   0.000003   0.000002  -0.000782
   48  AS 1 ZZY   0.000000  -0.000003  -0.000094   0.000031   0.000036
   49  AS 1 XYZ  -0.000004   0.000007   0.000002   0.000000   0.000061
   50  H  2  S    0.000002  -0.000201   0.000377   0.000001  -0.002992
   51  H  2  S    0.000332  -0.000934   0.001750   0.000010  -0.001460
   52  H  2  S   -0.000675   0.000326  -0.000613  -0.000004  -0.000928
   53  H  2  X   -0.000004   0.000011   0.000025   0.000000  -0.000760
   54  H  2  Y    0.000007   0.000024  -0.000019  -0.000001   0.000567
   55  H  2  Z    0.000000   0.000002  -0.000001   0.000011   0.000030
   56  H  2  X    0.000006  -0.000036   0.000264   0.000002  -0.000702
   57  H  2  Y   -0.000009   0.000251  -0.000357  -0.000010  -0.000481
   58  H  2  Z   -0.000000   0.000014  -0.000019   0.000123  -0.000024
   59  H  2 XX   -0.000004  -0.000003  -0.000052  -0.000000  -0.000109
   60  H  2 YY    0.000024  -0.000039   0.000130  -0.000002  -0.000150
   61  H  2 ZZ   -0.000020   0.000042  -0.000079   0.000003   0.000259
   62  H  2 XY   -0.000028   0.000099  -0.000148  -0.000000   0.000558
   63  H  2 XZ   -0.000002   0.000006  -0.000008  -0.000018   0.000033
   64  H  2 YZ    0.000003  -0.000005   0.000013   0.000030  -0.000026
   65  H  3  S    0.000002  -0.000226  -0.000363   0.000001  -0.002515
   66  H  3  S    0.000332  -0.001045  -0.001687   0.000010  -0.001228
   67  H  3  S   -0.000675   0.000365   0.000591  -0.000004  -0.000781
   68  H  3  X   -0.000004   0.000009  -0.000025   0.000000  -0.000711
   69  H  3  Y   -0.000007  -0.000026  -0.000018  -0.000000  -0.000436
   70  H  3  Z   -0.000000  -0.000001  -0.000001   0.000011  -0.000024
   71  H  3  X    0.000006  -0.000053  -0.000261   0.000002  -0.000753
   72  H  3  Y    0.000009  -0.000273  -0.000340  -0.000003   0.000497
   73  H  3  Z    0.000001  -0.000014  -0.000019   0.000124   0.000028
   74  H  3 XX   -0.000004   0.000001   0.000052  -0.000000  -0.000135
   75  H  3 YY    0.000024  -0.000048  -0.000128   0.000003  -0.000083
   76  H  3 ZZ   -0.000021   0.000047   0.000076  -0.000003   0.000218
   77  H  3 XY    0.000028  -0.000109  -0.000142   0.000002  -0.000498
   78  H  3 XZ    0.000001  -0.000006  -0.000007  -0.000018  -0.000023
   79  H  3 YZ    0.000003  -0.000006  -0.000012  -0.000030  -0.000019
   80  H  4  S    0.000002   0.000429  -0.000014   0.000001   0.005524
   81  H  4  S    0.000334   0.001991  -0.000064   0.000010   0.002659
   82  H  4  S   -0.000677  -0.000695   0.000022  -0.000005   0.001711
   83  H  4  X    0.000007  -0.000037   0.000001  -0.000000  -0.001614
   84  H  4  Y   -0.000000   0.000001   0.000024  -0.000001   0.000022
   85  H  4  Z    0.000000  -0.000001   0.000001   0.000011  -0.000010
   86  H  4  X   -0.000011  -0.000501   0.000016  -0.000005   0.000131
   87  H  4  Y    0.000000   0.000003   0.000107  -0.000007   0.000051
   88  H  4  Z   -0.000000  -0.000003   0.000006   0.000124  -0.000005
   89  H  4 XX    0.000040   0.000227  -0.000007   0.000001   0.001035
   90  H  4 YY   -0.000018  -0.000135   0.000004  -0.000001  -0.000553
   91  H  4 ZZ   -0.000021  -0.000092   0.000003   0.000000  -0.000482
   92  H  4 XY   -0.000000   0.000001   0.000035  -0.000002  -0.000015
   93  H  4 XZ    0.000000   0.000003   0.000002   0.000035   0.000015
   94  H  4 YZ    0.000000  -0.000003   0.000001  -0.000000  -0.000005

                     11         12         13         14         15
                   -2.4337    -2.4296    -2.4287    -2.4287     1.9719
                     A          A          A          A          A   
    1  AS 1  S    0.000000  -0.000096  -0.000000   0.000000   0.000446
    2  AS 1  S    0.000001  -0.000643  -0.000000   0.000000   0.002683
    3  AS 1  S    0.000002  -0.001507  -0.000000   0.000000   0.004446
    4  AS 1  S    0.000001  -0.003253  -0.000000  -0.000001   0.556969
    5  AS 1  S   -0.000002   0.000600  -0.000000  -0.000000   0.235482
    6  AS 1  S   -0.000002   0.003473   0.000000  -0.000000   0.131066
    7  AS 1  X   -0.000011  -0.000000  -0.000005  -0.000001  -0.000009
    8  AS 1  Y   -0.000215   0.000000   0.000001  -0.000005   0.000001
    9  AS 1  Z   -0.000012  -0.000004  -0.000001  -0.000000  -0.000009
   10  AS 1  X   -0.000051  -0.000000  -0.000083  -0.000022  -0.000111
   11  AS 1  Y   -0.001059   0.000003   0.000023  -0.000083   0.000014
   12  AS 1  Z   -0.000057  -0.000071  -0.000009  -0.000007  -0.000134
   13  AS 1  X   -0.000233  -0.000011  -0.000025  -0.000007   0.000094
   14  AS 1  Y   -0.004633   0.000003   0.000007  -0.000025  -0.000022
   15  AS 1  Z   -0.000249  -0.000071   0.000001  -0.000001  -0.000010
   16  AS 1  X    0.000093   0.000002   0.000046   0.000012   0.000115
   17  AS 1  Y    0.001889   0.000000  -0.000013   0.000046  -0.000018
   18  AS 1  Z    0.000102   0.000019   0.000010   0.000005   0.000059
   19  AS 1  X    0.000129   0.000002  -0.000012  -0.000003  -0.000008
   20  AS 1  Y    0.002555   0.000002   0.000003  -0.000012   0.000011
   21  AS 1  Z    0.000138  -0.000012   0.000003   0.000000  -0.000210
   22  AS 1 XX   -0.042030  -0.483663  -0.009351  -0.002534  -0.014290
   23  AS 1 YY    0.042073  -0.480240   0.026198  -0.085840  -0.014146
   24  AS 1 ZZ   -0.000044   0.963904  -0.016847   0.088375   0.028436
   25  AS 1 XY    0.964114   0.000594  -0.049939  -0.013995  -0.000014
   26  AS 1 XZ    0.051346  -0.006793   0.933414   0.252411  -0.000200
   27  AS 1 YZ    0.003094  -0.089702  -0.251598   0.929373  -0.002644
   28  AS 1 XX   -0.003679  -0.041078  -0.000797  -0.000216   0.008447
   29  AS 1 YY    0.003683  -0.040783   0.002227  -0.007286   0.008358
   30  AS 1 ZZ   -0.000004   0.081861  -0.001430   0.007502  -0.016805
   31  AS 1 XY    0.084398   0.000050  -0.004241  -0.001184   0.000009
   32  AS 1 XZ    0.004495  -0.000577   0.079239   0.021428   0.000118
   33  AS 1 YZ    0.000273  -0.007618  -0.021358   0.078895   0.001563
   34  AS 1 XX   -0.000022  -0.000678  -0.000028  -0.000007   0.004352
   35  AS 1 YY    0.000023  -0.000660   0.000044  -0.000080   0.004339
   36  AS 1 ZZ   -0.000001   0.001337  -0.000017   0.000088  -0.008692
   37  AS 1 XY    0.000511   0.000001  -0.000055   0.000007   0.000002
   38  AS 1 XZ    0.000027  -0.000009   0.000929   0.000252   0.000061
   39  AS 1 YZ   -0.000007  -0.000124  -0.000249   0.000924   0.000809
   40  AS 1 XXX  -0.000022  -0.001017  -0.000018  -0.000005   0.013450
   41  AS 1 YYY  -0.000437   0.000002   0.000032  -0.000008  -0.000003
   42  AS 1 ZZZ   0.000094   0.000030  -0.000004   0.000002  -0.000080
   43  AS 1 XXY  -0.000186   0.000001  -0.000011  -0.000009  -0.000001
   44  AS 1 XXZ  -0.000012  -0.000026   0.000232   0.000062   0.000126
   45  AS 1 YYX  -0.000013   0.001356  -0.000012   0.000023  -0.017979
   46  AS 1 YYZ  -0.000114  -0.000014  -0.000226  -0.000065  -0.000019
   47  AS 1 ZZX   0.000042   0.000009   0.000037  -0.000016  -0.000066
   48  AS 1 ZZY   0.000772  -0.000004  -0.000031   0.000020   0.000005
   49  AS 1 XYZ   0.000023   0.000084   0.000068  -0.000259  -0.001112
   50  H  2  S   -0.004616  -0.002796  -0.000018   0.000018   0.074348
   51  H  2  S   -0.002246  -0.000907  -0.000044   0.000043   0.107511
   52  H  2  S   -0.001445  -0.000356  -0.000014   0.000014   0.010154
   53  H  2  X   -0.000461  -0.000440   0.000000   0.000004   0.003479
   54  H  2  Y    0.001284   0.000762   0.000023  -0.000021  -0.006024
   55  H  2  Z    0.000071   0.000045  -0.000310   0.000310  -0.000333
   56  H  2  X    0.000532   0.000060   0.000001   0.000010   0.006365
   57  H  2  Y    0.000185  -0.000109   0.000060  -0.000054  -0.011002
   58  H  2  Z    0.000019   0.000005  -0.000808   0.000807  -0.000608
   59  H  2 XX    0.000258  -0.000016   0.000002   0.000001   0.000017
   60  H  2 YY   -0.000657  -0.000381  -0.000032   0.000022   0.001554
   61  H  2 ZZ    0.000399   0.000397   0.000031  -0.000023  -0.001571
   62  H  2 XY    0.000577   0.000367   0.000004  -0.000014  -0.001551
   63  H  2 XZ    0.000032   0.000022  -0.000084   0.000209  -0.000082
   64  H  2 YZ   -0.000071  -0.000054   0.000289  -0.000217   0.000198
   65  H  3  S    0.004899  -0.002797  -0.000007  -0.000025   0.074393
   66  H  3  S    0.002383  -0.000907  -0.000016  -0.000060   0.107568
   67  H  3  S    0.001532  -0.000354  -0.000005  -0.000019   0.010166
   68  H  3  X    0.000536  -0.000440   0.000002  -0.000003   0.003482
   69  H  3  Y    0.001337  -0.000763   0.000002   0.000016   0.006029
   70  H  3  Z    0.000069  -0.000037  -0.000113  -0.000425   0.000313
   71  H  3  X   -0.000459   0.000061   0.000006  -0.000008   0.006366
   72  H  3  Y    0.000136   0.000108   0.000007   0.000042   0.011007
   73  H  3  Z   -0.000002   0.000016  -0.000292  -0.001107   0.000573
   74  H  3 XX   -0.000246  -0.000016   0.000002  -0.000000   0.000016
   75  H  3 YY    0.000670  -0.000382   0.000009   0.000027   0.001556
   76  H  3 ZZ   -0.000424   0.000398  -0.000011  -0.000027  -0.001572
   77  H  3 XY    0.000631  -0.000367  -0.000000   0.000010   0.001551
   78  H  3 XZ    0.000032  -0.000017   0.000033  -0.000224   0.000085
   79  H  3 YZ    0.000063  -0.000043  -0.000141  -0.000335   0.000190
   80  H  4  S   -0.000274  -0.002809   0.000025   0.000007   0.074587
   81  H  4  S   -0.000132  -0.000888   0.000060   0.000016   0.107726
   82  H  4  S   -0.000087  -0.000355   0.000019   0.000005   0.010129
   83  H  4  X    0.000080   0.000887  -0.000010  -0.000003  -0.006994
   84  H  4  Y    0.000449  -0.000000  -0.000024  -0.000003   0.000000
   85  H  4  Z    0.000025   0.000009   0.000428   0.000116  -0.000052
   86  H  4  X   -0.000007  -0.000132  -0.000026  -0.000007  -0.012757
   87  H  4  Y    0.001011  -0.000001  -0.000062  -0.000008   0.000002
   88  H  4  Z    0.000055   0.000009   0.001104   0.000300  -0.000094
   89  H  4 XX   -0.000051  -0.000570   0.000009   0.000002   0.002353
   90  H  4 YY    0.000028   0.000169   0.000002  -0.000009  -0.000768
   91  H  4 ZZ    0.000023   0.000401  -0.000011   0.000007  -0.001585
   92  H  4 XY   -0.000311   0.000000   0.000023   0.000002  -0.000001
   93  H  4 XZ   -0.000017  -0.000013  -0.000405  -0.000110   0.000030
   94  H  4 YZ   -0.000005  -0.000014  -0.000026   0.000099   0.000051

                     16         17         18         19         20
                    1.7203     1.7202     1.2380     0.2907     0.0295
                     A          A          A          A          A   
    1  AS 1  S   -0.000004   0.000001  -0.000008   0.001260  -0.000006
    2  AS 1  S   -0.000025   0.000005  -0.000063   0.009572  -0.000040
    3  AS 1  S   -0.000106   0.000021  -0.000382   0.063256  -0.000172
    4  AS 1  S   -0.000420   0.000091  -0.002996   0.491475  -0.000362
    5  AS 1  S   -0.000141   0.000028  -0.001467   0.249981  -0.000149
    6  AS 1  S   -0.000402   0.000087  -0.002572   0.658994  -0.000085
    7  AS 1  X   -0.003936   0.000663   0.000001  -0.000011  -0.002394
    8  AS 1  Y   -0.000663  -0.003923   0.000013  -0.000005   0.013938
    9  AS 1  Z   -0.000051  -0.000208  -0.000248   0.000034   0.000738
   10  AS 1  X   -0.052438   0.008834   0.000005  -0.000183  -0.032341
   11  AS 1  Y   -0.008834  -0.052266   0.000063  -0.000060   0.188282
   12  AS 1  Z   -0.000685  -0.002768  -0.001180   0.000460   0.009968
   13  AS 1  X    0.359127  -0.060657  -0.002459  -0.002561  -0.165376
   14  AS 1  Y    0.060476   0.358709  -0.032839  -0.000459   0.963312
   15  AS 1  Z    0.004694   0.018994   0.612274   0.004440   0.051002
   16  AS 1  X    0.164682  -0.027798  -0.000910  -0.000900  -0.044574
   17  AS 1  Y    0.027735   0.164407  -0.012143  -0.000130   0.259697
   18  AS 1  Z    0.002152   0.008706   0.226409   0.001348   0.013750
   19  AS 1  X    0.065057  -0.010997  -0.001181  -0.001989  -0.035710
   20  AS 1  Y    0.010965   0.065092  -0.015796  -0.000432   0.208424
   21  AS 1  Z    0.000853   0.003446   0.294543   0.003481   0.011034
   22  AS 1 XX   -0.052938   0.008933  -0.000097   0.057343  -0.017567
   23  AS 1 YY    0.052735  -0.008876  -0.000099   0.057773   0.017309
   24  AS 1 ZZ    0.000204  -0.000057   0.000196  -0.115116   0.000258
   25  AS 1 XY    0.010274   0.060803   0.000000   0.000078  -0.117977
   26  AS 1 XZ   -0.000178   0.003384  -0.000017   0.000803  -0.006763
   27  AS 1 YZ    0.003222  -0.000788  -0.000016   0.010739   0.002585
   28  AS 1 XX    0.027976  -0.004725  -0.000036  -0.047490   0.010176
   29  AS 1 YY   -0.027868   0.004700  -0.000033  -0.047735  -0.009917
   30  AS 1 ZZ   -0.000108   0.000025   0.000069   0.095226  -0.000259
   31  AS 1 XY   -0.005419  -0.032115   0.000001  -0.000054   0.068666
   32  AS 1 XZ    0.000040  -0.001778  -0.000005  -0.000664   0.004132
   33  AS 1 YZ   -0.001711   0.000362  -0.000009  -0.008880  -0.002570
   34  AS 1 XX    0.021012  -0.003553  -0.000217  -0.091628  -0.007029
   35  AS 1 YY   -0.020923   0.003540  -0.000214  -0.092177   0.007273
   36  AS 1 ZZ   -0.000089   0.000013   0.000431   0.183804  -0.000244
   37  AS 1 XY   -0.004060  -0.024117   0.000004  -0.000071  -0.046609
   38  AS 1 XZ    0.000023  -0.001333  -0.000034  -0.001277  -0.002129
   39  AS 1 YZ   -0.001285   0.000265  -0.000042  -0.017141  -0.001951
   40  AS 1 XXX   0.007725  -0.001305   0.000086  -0.043882   0.001082
   41  AS 1 YYY   0.001285   0.007615  -0.001142   0.000036  -0.006082
   42  AS 1 ZZZ  -0.000402  -0.001623  -0.014151   0.000510   0.001309
   43  AS 1 XXY   0.000575   0.003392  -0.000513   0.000016  -0.002808
   44  AS 1 XXZ   0.000285   0.000139   0.009559  -0.000580  -0.000078
   45  AS 1 YYX   0.003372  -0.000563  -0.000268   0.058815   0.000406
   46  AS 1 YYZ   0.000254   0.002038   0.009427  -0.000104  -0.001678
   47  AS 1 ZZX  -0.013736   0.002315   0.000152   0.000059  -0.001857
   48  AS 1 ZZY  -0.002299  -0.013608   0.002044  -0.000064   0.010968
   49  AS 1 XYZ   0.001056  -0.000217  -0.000025   0.003650   0.000420
   50  H  2  S   -0.056621   0.152059   0.000893  -0.139654  -0.249716
   51  H  2  S   -0.099331   0.266750   0.001895  -0.326647  -0.715791
   52  H  2  S   -0.028272   0.076041   0.000872  -0.302713  -0.065863
   53  H  2  X   -0.000421   0.005939   0.000002   0.000552  -0.002899
   54  H  2  Y    0.004359  -0.008940  -0.000276  -0.001029   0.009934
   55  H  2  Z    0.000246  -0.000493   0.004500  -0.000021   0.000409
   56  H  2  X   -0.000130   0.014463  -0.000051  -0.000477  -0.051036
   57  H  2  Y    0.010882  -0.021103  -0.001310   0.000571   0.114625
   58  H  2  Z    0.000612  -0.001151   0.023086  -0.000024   0.005520
   59  H  2 XX    0.001454  -0.000039  -0.000001  -0.000485   0.002123
   60  H  2 YY   -0.002220   0.002116   0.000234   0.000008  -0.009516
   61  H  2 ZZ    0.000767  -0.002078  -0.000233   0.000477   0.007394
   62  H  2 XY    0.000300  -0.003397  -0.000074  -0.000440   0.007398
   63  H  2 XZ    0.000024  -0.000185   0.001323  -0.000030   0.000307
   64  H  2 YZ   -0.000193   0.000269  -0.002283  -0.000027  -0.000958
   65  H  3  S   -0.103382  -0.125033   0.000893  -0.139790   0.204851
   66  H  3  S   -0.181347  -0.219323   0.001894  -0.326986   0.587164
   67  H  3  S   -0.051638  -0.062528   0.000875  -0.303176   0.054156
   68  H  3  X   -0.002349  -0.005474   0.000002   0.000558   0.000185
   69  H  3  Y   -0.007055  -0.007014  -0.000207   0.001024   0.009385
   70  H  3  Z   -0.000362  -0.000367   0.004506   0.000089   0.000595
   71  H  3  X   -0.004878  -0.013618  -0.000051  -0.000463   0.030165
   72  H  3  Y   -0.017208  -0.016355  -0.001168  -0.000578   0.100629
   73  H  3  Z   -0.000889  -0.000868   0.023101  -0.000084   0.005859
   74  H  3 XX    0.001384  -0.000442  -0.000001  -0.000481  -0.003364
   75  H  3 YY   -0.002793  -0.001270  -0.000192   0.000004   0.009413
   76  H  3 ZZ    0.001409   0.001712   0.000193   0.000477  -0.006049
   77  H  3 XY   -0.001403  -0.003110  -0.000068   0.000443   0.004967
   78  H  3 XZ   -0.000067  -0.000166   0.001324   0.000017   0.000355
   79  H  3 YZ   -0.000252  -0.000180   0.002288  -0.000031   0.001017
   80  H  4  S    0.160178  -0.027015   0.000887  -0.138737   0.045069
   81  H  4  S    0.280669  -0.047337   0.001881  -0.324084   0.129069
   82  H  4  S    0.079974  -0.013497   0.000866  -0.299801   0.011714
   83  H  4  X   -0.011303   0.001904  -0.000058  -0.001141  -0.001844
   84  H  4  Y    0.000323   0.001919  -0.000242  -0.000007   0.007042
   85  H  4  Z   -0.000068   0.000117   0.004518   0.000027   0.000391
   86  H  4  X   -0.026832   0.004516  -0.000174   0.000641  -0.022581
   87  H  4  Y    0.000942   0.005623  -0.001239  -0.000015   0.037433
   88  H  4  Z   -0.000139   0.000333   0.023103  -0.000048   0.001994
   89  H  4 XX    0.004349  -0.000730   0.000046   0.000200   0.002209
   90  H  4 YY   -0.002153   0.000361   0.000002  -0.000684  -0.000860
   91  H  4 ZZ   -0.002196   0.000369  -0.000048   0.000484  -0.001349
   92  H  4 XY   -0.000299  -0.001785   0.000142   0.000005  -0.006030
   93  H  4 XZ    0.000041  -0.000105  -0.002651   0.000003  -0.000323
   94  H  4 YZ    0.000001  -0.000008   0.000002  -0.000072  -0.000067

                     21
                    0.0294
                     A   
    1  AS 1  S    0.000051
    2  AS 1  S    0.000356
    3  AS 1  S    0.001601
    4  AS 1  S    0.004415
    5  AS 1  S    0.001839
    6  AS 1  S   -0.000460
    7  AS 1  X    0.014003
    8  AS 1  Y    0.002393
    9  AS 1  Z    0.000185
   10  AS 1  X    0.189108
   11  AS 1  Y    0.032322
   12  AS 1  Z    0.002499
   13  AS 1  X    0.965651
   14  AS 1  Y    0.165136
   15  AS 1  Z    0.012762
   16  AS 1  X    0.260126
   17  AS 1  Y    0.044493
   18  AS 1  Z    0.003438
   19  AS 1  X    0.208380
   20  AS 1  Y    0.035706
   21  AS 1  Z    0.002756
   22  AS 1 XX    0.102833
   23  AS 1 YY   -0.101914
   24  AS 1 ZZ   -0.000919
   25  AS 1 XY   -0.020333
   26  AS 1 XZ    0.001384
   27  AS 1 YZ   -0.006022
   28  AS 1 XX   -0.059636
   29  AS 1 YY    0.059087
   30  AS 1 ZZ    0.000549
   31  AS 1 XY    0.011910
   32  AS 1 XZ   -0.001878
   33  AS 1 YZ    0.003316
   34  AS 1 XX    0.040903
   35  AS 1 YY   -0.040880
   36  AS 1 ZZ   -0.000023
   37  AS 1 XY   -0.007819
   38  AS 1 XZ   -0.002442
   39  AS 1 YZ   -0.002927
   40  AS 1 XXX  -0.006451
   41  AS 1 YYY  -0.001073
   42  AS 1 ZZZ   0.000334
   43  AS 1 XXY  -0.000463
   44  AS 1 XXZ  -0.000450
   45  AS 1 YYX  -0.002323
   46  AS 1 YYZ   0.000002
   47  AS 1 ZZX   0.010978
   48  AS 1 ZZY   0.001903
   49  AS 1 XYZ  -0.000780
   50  H  2  S    0.091059
   51  H  2  S    0.262079
   52  H  2  S    0.024766
   53  H  2  X    0.007621
   54  H  2  Y    0.000157
   55  H  2  Z    0.000081
   56  H  2  X    0.053813
   57  H  2  Y   -0.021937
   58  H  2  Z   -0.000806
   59  H  2 XX    0.004096
   60  H  2 YY   -0.001390
   61  H  2 ZZ   -0.002706
   62  H  2 XY   -0.005988
   63  H  2 XZ   -0.000334
   64  H  2 YZ   -0.000005
   65  H  3  S    0.168986
   66  H  3  S    0.485531
   67  H  3  S    0.045392
   68  H  3  X    0.008144
   69  H  3  Y    0.003139
   70  H  3  Z    0.000276
   71  H  3  X    0.067755
   72  H  3  Y    0.058788
   73  H  3  Z    0.003703
   74  H  3 XX    0.003160
   75  H  3 YY    0.001835
   76  H  3 ZZ   -0.004996
   77  H  3 XY    0.008109
   78  H  3 XZ    0.000452
   79  H  3 YZ    0.000535
   80  H  4  S   -0.264144
   81  H  4  S   -0.755849
   82  H  4  S   -0.067761
   83  H  4  X    0.010801
   84  H  4  Y    0.001215
   85  H  4  Z   -0.000009
   86  H  4  X    0.132205
   87  H  4  Y    0.006475
   88  H  4  Z    0.000436
   89  H  4 XX   -0.012933
   90  H  4 YY    0.005057
   91  H  4 ZZ    0.007877
   92  H  4 XY   -0.001045
   93  H  4 XZ   -0.000063
   94  H  4 YZ   -0.000192

          ------------------------
          MCSCF OPTIMIZED ORBITALS
          ------------------------

                      1          2          3          4          5
                 -432.8955   -56.6209   -50.4654   -50.4653   -50.4653
                     A          A          A          A          A   
    1  AS 1  S    0.999999   0.000003   0.000000   0.000000  -0.000000
    2  AS 1  S    0.000001   1.000103  -0.000013  -0.000000   0.000000
    3  AS 1  S   -0.000004   0.000134   0.000002   0.000000  -0.000000
    4  AS 1  S   -0.000005   0.000143   0.000001   0.000000  -0.000001
    5  AS 1  S    0.000016  -0.000426  -0.000001  -0.000000  -0.000000
    6  AS 1  S    0.000005  -0.000140  -0.000001   0.000000  -0.000000
    7  AS 1  X    0.000000  -0.000000  -0.004295  -0.365485   0.930834
    8  AS 1  Y   -0.000000  -0.000001  -0.053598   0.929589   0.364749
    9  AS 1  Z    0.000000   0.000013   0.998579   0.048323   0.023581
   10  AS 1  X    0.000000   0.000000  -0.000000   0.000001  -0.000002
   11  AS 1  Y    0.000000  -0.000000  -0.000000  -0.000002  -0.000001
   12  AS 1  Z   -0.000000   0.000001   0.000001  -0.000000  -0.000000
   13  AS 1  X    0.000000  -0.000000   0.000000   0.000032  -0.000082
   14  AS 1  Y   -0.000000  -0.000000   0.000000  -0.000081  -0.000032
   15  AS 1  Z   -0.000000   0.000000  -0.000002  -0.000004  -0.000002
   16  AS 1  X    0.000000  -0.000000   0.000002   0.000183  -0.000466
   17  AS 1  Y   -0.000000   0.000000   0.000024  -0.000465  -0.000182
   18  AS 1  Z    0.000000  -0.000000  -0.000446  -0.000024  -0.000012
   19  AS 1  X    0.000000  -0.000000   0.000000   0.000033  -0.000084
   20  AS 1  Y    0.000000  -0.000000   0.000004  -0.000084  -0.000033
   21  AS 1  Z    0.000000  -0.000000  -0.000069  -0.000004  -0.000002
   22  AS 1 XX    0.000000  -0.000001  -0.000001  -0.000001   0.000002
   23  AS 1 YY    0.000000  -0.000001  -0.000001   0.000001  -0.000002
   24  AS 1 ZZ   -0.000000   0.000001   0.000001   0.000000   0.000000
   25  AS 1 XY   -0.000000  -0.000000   0.000000  -0.000002  -0.000001
   26  AS 1 XZ    0.000000  -0.000000  -0.000000  -0.000000   0.000001
   27  AS 1 YZ    0.000000  -0.000000  -0.000000   0.000001   0.000000
   28  AS 1 XX    0.000000  -0.000002   0.000000   0.000020  -0.000052
   29  AS 1 YY    0.000000  -0.000002   0.000000  -0.000020   0.000051
   30  AS 1 ZZ   -0.000000   0.000004  -0.000000  -0.000000   0.000000
   31  AS 1 XY    0.000000   0.000000  -0.000000   0.000059   0.000023
   32  AS 1 XZ    0.000000  -0.000000   0.000000   0.000004   0.000000
   33  AS 1 YZ    0.000000  -0.000000   0.000000  -0.000002   0.000003
   34  AS 1 XX    0.000000  -0.000002  -0.000000   0.000006  -0.000015
   35  AS 1 YY    0.000000  -0.000002  -0.000000  -0.000006   0.000014
   36  AS 1 ZZ   -0.000000   0.000004   0.000000  -0.000000   0.000000
   37  AS 1 XY   -0.000000   0.000000  -0.000000   0.000017   0.000007
   38  AS 1 XZ    0.000000  -0.000000  -0.000000   0.000001   0.000000
   39  AS 1 YZ    0.000000  -0.000000  -0.000000  -0.000000   0.000001
   40  AS 1 XXX   0.000000  -0.000006   0.000000   0.000005  -0.000012
   41  AS 1 YYY  -0.000000  -0.000000  -0.000000  -0.000012  -0.000005
   42  AS 1 ZZZ  -0.000000   0.000000  -0.000000   0.000003   0.000001
   43  AS 1 XXY   0.000000  -0.000000  -0.000000  -0.000005  -0.000002
   44  AS 1 XXZ   0.000000  -0.000000   0.000000  -0.000000  -0.000001
   45  AS 1 YYX  -0.000000   0.000008  -0.000000   0.000002  -0.000005
   46  AS 1 YYZ  -0.000000   0.000000   0.000000  -0.000003  -0.000001
   47  AS 1 ZZX  -0.000000   0.000000  -0.000000  -0.000009   0.000022
   48  AS 1 ZZY   0.000000   0.000000   0.000000   0.000021   0.000008
   49  AS 1 XYZ  -0.000000   0.000001  -0.000000   0.000001  -0.000002
   50  H  2  S   -0.000000   0.000006  -0.000000  -0.000014   0.000002
   51  H  2  S   -0.000000   0.000011  -0.000000   0.000068  -0.000010
   52  H  2  S   -0.000001   0.000029   0.000000   0.000046  -0.000007
   53  H  2  X   -0.000000   0.000002   0.000000   0.000008  -0.000002
   54  H  2  Y    0.000000  -0.000003  -0.000000  -0.000014   0.000002
   55  H  2  Z    0.000000  -0.000000   0.000001  -0.000001   0.000000
   56  H  2  X   -0.000000   0.000004  -0.000000   0.000035  -0.000007
   57  H  2  Y    0.000000  -0.000008   0.000000  -0.000061   0.000008
   58  H  2  Z    0.000000  -0.000000  -0.000005  -0.000003   0.000000
   59  H  2 XX    0.000000  -0.000001  -0.000000  -0.000004   0.000004
   60  H  2 YY   -0.000000   0.000005   0.000001   0.000026  -0.000007
   61  H  2 ZZ    0.000000  -0.000004  -0.000001  -0.000022   0.000003
   62  H  2 XY    0.000000  -0.000006  -0.000000  -0.000031   0.000003
   63  H  2 XZ    0.000000  -0.000000   0.000003  -0.000002   0.000000
   64  H  2 YZ   -0.000000   0.000001  -0.000005   0.000003  -0.000001
   65  H  3  S   -0.000000   0.000006  -0.000000   0.000009   0.000011
   66  H  3  S   -0.000000   0.000011  -0.000000  -0.000043  -0.000054
   67  H  3  S   -0.000001   0.000029   0.000000  -0.000029  -0.000037
   68  H  3  X   -0.000000   0.000002   0.000000  -0.000005  -0.000007
   69  H  3  Y   -0.000000   0.000003  -0.000000  -0.000009  -0.000011
   70  H  3  Z   -0.000000   0.000000   0.000001  -0.000000  -0.000001
   71  H  3  X   -0.000000   0.000004  -0.000000  -0.000021  -0.000029
   72  H  3  Y   -0.000000   0.000008   0.000000  -0.000039  -0.000048
   73  H  3  Z   -0.000000   0.000000  -0.000005  -0.000002  -0.000002
   74  H  3 XX    0.000000  -0.000001  -0.000000   0.000000   0.000005
   75  H  3 YY   -0.000000   0.000005  -0.000000  -0.000014  -0.000022
   76  H  3 ZZ    0.000000  -0.000004   0.000000   0.000014   0.000017
   77  H  3 XY   -0.000000   0.000006  -0.000000  -0.000021  -0.000023
   78  H  3 XZ   -0.000000   0.000000   0.000003  -0.000001  -0.000001
   79  H  3 YZ   -0.000000   0.000001   0.000005  -0.000002  -0.000002
   80  H  4  S   -0.000000   0.000006  -0.000000   0.000005  -0.000013
   81  H  4  S   -0.000000   0.000012  -0.000000  -0.000026   0.000065
   82  H  4  S   -0.000001   0.000029   0.000000  -0.000017   0.000044
   83  H  4  X    0.000000  -0.000004  -0.000000   0.000006  -0.000016
   84  H  4  Y   -0.000000   0.000000  -0.000000  -0.000001  -0.000000
   85  H  4  Z    0.000000  -0.000000   0.000001   0.000000  -0.000000
   86  H  4  X    0.000000  -0.000009   0.000000   0.000026  -0.000067
   87  H  4  Y   -0.000000  -0.000000   0.000000  -0.000002  -0.000001
   88  H  4  Z    0.000000  -0.000000  -0.000005   0.000000  -0.000001
   89  H  4 XX   -0.000000   0.000008   0.000000  -0.000015   0.000039
   90  H  4 YY    0.000000  -0.000004  -0.000000   0.000007  -0.000019
   91  H  4 ZZ    0.000000  -0.000004  -0.000000   0.000008  -0.000020
   92  H  4 XY    0.000000   0.000000   0.000000  -0.000004  -0.000001
   93  H  4 XZ   -0.000000   0.000000  -0.000006  -0.000000   0.000000
   94  H  4 YZ    0.000000  -0.000000   0.000000  -0.000000   0.000000

                      6          7          8          9         10
                   -8.3449    -6.1997    -6.1997    -6.1963    -2.4337
                     A          A          A          A          A   
    1  AS 1  S   -0.000085  -0.000000   0.000000  -0.000002   0.000000
    2  AS 1  S   -0.000608  -0.000003   0.000000  -0.000017   0.000003
    3  AS 1  S    0.975261  -0.000020   0.000001  -0.000138   0.000007
    4  AS 1  S   -0.001918  -0.000013   0.000000  -0.000055  -0.000001
    5  AS 1  S    0.036268   0.000006   0.000000   0.000039  -0.000010
    6  AS 1  S    0.004129   0.000004   0.000000   0.000017  -0.000005
    7  AS 1  X   -0.000000  -0.000105   0.000003  -0.000000   0.000215
    8  AS 1  Y    0.000000  -0.000003  -0.000105  -0.000002  -0.000011
    9  AS 1  Z   -0.000001  -0.000001  -0.000006   0.000032   0.000000
   10  AS 1  X    0.000006   0.973879  -0.031487  -0.003889   0.001042
   11  AS 1  Y   -0.000005   0.031235   0.972496  -0.052250  -0.000054
   12  AS 1  Z    0.000073   0.005562   0.052029   0.974273   0.000001
   13  AS 1  X   -0.000002  -0.000995   0.000033  -0.000002   0.004635
   14  AS 1  Y    0.000001  -0.000032  -0.000994  -0.000023  -0.000232
   15  AS 1  Z   -0.000009  -0.000006  -0.000053   0.000431   0.000006
   16  AS 1  X    0.000002   0.047769  -0.001545  -0.000186  -0.001885
   17  AS 1  Y   -0.000001   0.001532   0.047704  -0.002498   0.000097
   18  AS 1  Z    0.000015   0.000273   0.002552   0.046574  -0.000002
   19  AS 1  X    0.000002   0.002064  -0.000066  -0.000007  -0.002554
   20  AS 1  Y    0.000000   0.000067   0.002064  -0.000088   0.000128
   21  AS 1  Z    0.000005   0.000012   0.000110   0.001650  -0.000003
   22  AS 1 XX    0.000324   0.000612  -0.000020  -0.000021   0.836295
   23  AS 1 YY    0.000319  -0.000606   0.000016  -0.000021  -0.833515
   24  AS 1 ZZ   -0.000643  -0.000005   0.000004   0.000043  -0.002780
   25  AS 1 XY   -0.000000  -0.000025  -0.000694  -0.000000   0.048197
   26  AS 1 XZ    0.000004   0.000044  -0.000039   0.000003   0.009821
   27  AS 1 YZ    0.000060  -0.000036   0.000041  -0.000004  -0.051570
   28  AS 1 XX    0.000050  -0.000329   0.000011  -0.000004   0.073212
   29  AS 1 YY    0.000051   0.000327  -0.000011  -0.000004  -0.072967
   30  AS 1 ZZ   -0.000101   0.000002   0.000000   0.000007  -0.000245
   31  AS 1 XY   -0.000000   0.000012   0.000380  -0.000000   0.004220
   32  AS 1 XZ    0.000001   0.000002   0.000020   0.000002   0.000858
   33  AS 1 YZ    0.000009   0.000020   0.000004  -0.000001  -0.004514
   34  AS 1 XX   -0.000015  -0.000215   0.000007   0.000000   0.000452
   35  AS 1 YY   -0.000015   0.000214  -0.000007   0.000000  -0.000447
   36  AS 1 ZZ    0.000030   0.000001  -0.000001  -0.000001  -0.000006
   37  AS 1 XY   -0.000000   0.000008   0.000246   0.000000   0.000025
   38  AS 1 XZ   -0.000000  -0.000007   0.000013  -0.000001   0.000014
   39  AS 1 YZ   -0.000003   0.000013  -0.000005   0.000000  -0.000028
   40  AS 1 XXX   0.000049   0.000053  -0.000002  -0.000003   0.000444
   41  AS 1 YYY  -0.000000   0.000001   0.000052  -0.000017  -0.000019
   42  AS 1 ZZZ  -0.000000  -0.000001  -0.000011  -0.000213  -0.000003
   43  AS 1 XXY  -0.000000   0.000001   0.000024  -0.000008  -0.000010
   44  AS 1 XXZ   0.000000  -0.000000   0.000001   0.000144   0.000035
   45  AS 1 YYX  -0.000066   0.000024  -0.000001   0.000002   0.000186
   46  AS 1 YYZ  -0.000000   0.000002   0.000014   0.000142  -0.000031
   47  AS 1 ZZX  -0.000000  -0.000095   0.000003   0.000002  -0.000782
   48  AS 1 ZZY   0.000000  -0.000003  -0.000094   0.000031   0.000036
   49  AS 1 XYZ  -0.000004   0.000007   0.000002   0.000000   0.000061
   50  H  2  S    0.000002  -0.000201   0.000377   0.000001  -0.002992
   51  H  2  S    0.000332  -0.000934   0.001750   0.000010  -0.001460
   52  H  2  S   -0.000675   0.000326  -0.000613  -0.000004  -0.000928
   53  H  2  X   -0.000004   0.000011   0.000025   0.000000  -0.000760
   54  H  2  Y    0.000007   0.000024  -0.000019  -0.000001   0.000567
   55  H  2  Z    0.000000   0.000002  -0.000001   0.000011   0.000030
   56  H  2  X    0.000006  -0.000036   0.000264   0.000002  -0.000702
   57  H  2  Y   -0.000009   0.000251  -0.000357  -0.000010  -0.000481
   58  H  2  Z   -0.000000   0.000014  -0.000019   0.000123  -0.000024
   59  H  2 XX   -0.000004  -0.000003  -0.000052  -0.000000  -0.000109
   60  H  2 YY    0.000024  -0.000039   0.000130  -0.000002  -0.000150
   61  H  2 ZZ   -0.000020   0.000042  -0.000079   0.000003   0.000259
   62  H  2 XY   -0.000028   0.000099  -0.000148  -0.000000   0.000558
   63  H  2 XZ   -0.000002   0.000006  -0.000008  -0.000018   0.000033
   64  H  2 YZ    0.000003  -0.000005   0.000013   0.000030  -0.000026
   65  H  3  S    0.000002  -0.000226  -0.000363   0.000001  -0.002515
   66  H  3  S    0.000332  -0.001045  -0.001687   0.000010  -0.001228
   67  H  3  S   -0.000675   0.000365   0.000591  -0.000004  -0.000781
   68  H  3  X   -0.000004   0.000009  -0.000025   0.000000  -0.000711
   69  H  3  Y   -0.000007  -0.000026  -0.000018  -0.000000  -0.000436
   70  H  3  Z   -0.000000  -0.000001  -0.000001   0.000011  -0.000024
   71  H  3  X    0.000006  -0.000053  -0.000261   0.000002  -0.000753
   72  H  3  Y    0.000009  -0.000273  -0.000340  -0.000003   0.000497
   73  H  3  Z    0.000001  -0.000014  -0.000019   0.000124   0.000028
   74  H  3 XX   -0.000004   0.000001   0.000052  -0.000000  -0.000135
   75  H  3 YY    0.000024  -0.000048  -0.000128   0.000003  -0.000083
   76  H  3 ZZ   -0.000021   0.000047   0.000076  -0.000003   0.000218
   77  H  3 XY    0.000028  -0.000109  -0.000142   0.000002  -0.000498
   78  H  3 XZ    0.000001  -0.000006  -0.000007  -0.000018  -0.000023
   79  H  3 YZ    0.000003  -0.000006  -0.000012  -0.000030  -0.000019
   80  H  4  S    0.000002   0.000429  -0.000014   0.000001   0.005524
   81  H  4  S    0.000334   0.001991  -0.000064   0.000010   0.002659
   82  H  4  S   -0.000677  -0.000695   0.000022  -0.000005   0.001711
   83  H  4  X    0.000007  -0.000037   0.000001  -0.000000  -0.001614
   84  H  4  Y   -0.000000   0.000001   0.000024  -0.000001   0.000022
   85  H  4  Z    0.000000  -0.000001   0.000001   0.000011  -0.000010
   86  H  4  X   -0.000011  -0.000501   0.000016  -0.000005   0.000131
   87  H  4  Y    0.000000   0.000003   0.000107  -0.000007   0.000051
   88  H  4  Z   -0.000000  -0.000003   0.000006   0.000124  -0.000005
   89  H  4 XX    0.000040   0.000227  -0.000007   0.000001   0.001035
   90  H  4 YY   -0.000018  -0.000135   0.000004  -0.000001  -0.000553
   91  H  4 ZZ   -0.000021  -0.000092   0.000003   0.000000  -0.000482
   92  H  4 XY   -0.000000   0.000001   0.000035  -0.000002  -0.000015
[...]
       79   -0.021815   -0.021815  -+220+0
      529    0.021814    0.021814  +022+-0
       54    0.021627   -0.021627  -2+200+

 ---------------------------------------
      - DIABATIC STATES IN CMO -        
 ---------------------------------------

 State #    1  Energy =   -2235.921404981

      Det      Coef        Coefp    Occupancy (Ignoring core)
      ---      ----        ----    --------- --------- -----
        1   -0.975857    0.975857  222+000
      107    0.073534   -0.073534  +22-+00
      143    0.061186    0.061186  220+200
      179    0.060606    0.060606  202+200
      393    0.057913    0.057913  202+020
      717    0.057675    0.057675  220+002
      211   -0.038270   -0.038270  +22+-00
       36   -0.035548   -0.035548  22+2000
        5   -0.035264   -0.035264  -22++00
       76    0.032912    0.032912  2+2-0+0
       51    0.032887   -0.032887  22+-00+
      218    0.032033   -0.032033  +-2+-+0
      227    0.031984    0.031984  +2-+-0+
      215    0.029797    0.029797  022+200
      390    0.027955   -0.027955  -+2++-0
      705    0.027910    0.027910  -2+++0-
      739   -0.025759   -0.025759  202++0-
      388    0.025759    0.025759  2+-++-0
      354   -0.025758    0.025758  2-+++-0
      703    0.025734    0.025734  220++0-
        8   -0.025728    0.025728  2-2+0+0
       17   -0.025637   -0.025637  22-+00+
      424   -0.025333   -0.025333  +-2++-0
      773   -0.025281    0.025281  +2-++0-
      368   -0.025174   -0.025174  2-++0-+
      742   -0.025160   -0.025160  2+-+0+-
      193    0.024074   -0.024074  202+-0+
      148    0.024072    0.024072  2-++-+0
      157   -0.024070    0.024070  220+-0+
      182   -0.024053    0.024053  2+-+-+0
      184   -0.023888   -0.023888  -+2+-+0
      159   -0.023827    0.023827  -2++-0+
      753    0.023373    0.023373  202+002
      357    0.023128    0.023128  220+020
      789    0.021557    0.021557  022+002
      429    0.021554    0.021554  022+020

 State #    2  Energy =   -2235.729160746

      Det      Coef        Coefp    Occupancy (Ignoring core)
      ---      ----        ----    --------- --------- -----
        2   -0.951770    0.951770  2220+00
      106   -0.172314   -0.172314  +222000
      156   -0.079950    0.079950  22+0-0+
      181   -0.079183   -0.079183  2+20-+0
      702    0.076873    0.076873  22+0+0-
      387    0.076104   -0.076104  2+20+-0
      212    0.064176    0.064176  +220200
      396    0.059908    0.059908  2020+20
      720    0.059716    0.059716  2200+02
      110    0.057444   -0.057444  0222+00
      741   -0.044946    0.044946  2+200+-
      401    0.044928    0.044928  2+200-+
      356   -0.044699   -0.044699  22+0020
      716    0.044671    0.044671  22+0002
       38    0.031279   -0.031279  2202+00
       74    0.031256   -0.031256  2022+00
      756    0.026915    0.026915  2020+02
      360    0.026714    0.026714  2200+20
      371   -0.024735   -0.024735  2-+0+-+
      745   -0.024724   -0.024724  2+-0++-
      151    0.022449    0.022449  2-+02+0
      160   -0.022446    0.022446  220020+
      196    0.022442   -0.022442  202020+
      185   -0.022414    0.022414  2+-02+0
      391    0.021962   -0.021962  2+20020
      221    0.021685   -0.021685  +-202+0
      230    0.021652    0.021652  +2-020+
      751   -0.021426    0.021426  2+20002
      706   -0.021299   -0.021299  22+00+-
      366    0.021150   -0.021150  22+00-+
      187   -0.020762   -0.020762  -+202+0
      162   -0.020719    0.020719  -2+020+

 State #    3  Energy =   -2235.693504758

      Det      Coef        Coefp    Occupancy (Ignoring core)
      ---      ----        ----    --------- --------- -----
       36    0.924556    0.924556  22+2000
       71    0.216668   -0.216668  2+22000
      142   -0.117175   -0.117175  22+0200
       16    0.107660   -0.107660  222000+
       73   -0.089447    0.089447  2+-2+00
       39    0.089399    0.089399  2-+2+00
       52   -0.086450    0.086450  220200+
      249   -0.067356    0.067356  20+2200
      108    0.054735    0.054735  +2-2+00
       74    0.049993   -0.049993  2022+00
       38   -0.049943    0.049943  2202+00
      463   -0.049279    0.049279  20+2020
        6    0.048333   -0.048333  22200+0
      123   -0.038857    0.038857  +-2200+
       40   -0.038725    0.038725  -2+2+00
      112   -0.038598   -0.038598  +2-20+0
        1   -0.038354    0.038354  222+000
       88   -0.037852    0.037852  202200+
      460   -0.036170   -0.036170  -++2+-0
       77    0.035023   -0.035023  2+-20+0
      113   -0.032791    0.032791  +-220+0
      122    0.032750    0.032750  +2-200+
      288   -0.030887   -0.030887  +-+2-+0
       78   -0.028640    0.028640  20220+0
      494    0.027569   -0.027569  +-+2+-0
      177   -0.027483    0.027483  2+20200
       42   -0.027180    0.027180  22020+0
      285   -0.025078    0.025078  02+2200
      297   -0.025006    0.025006  +202-0+
      859   -0.024785    0.024785  02+2002
      499   -0.024697    0.024697  02+2020
      823   -0.024278    0.024278  20+2002
      254    0.023420   -0.023420  -++2-+0
      876    0.022328    0.022328  ++2200-
      491    0.022185   -0.022185  +2+20-0
      456   -0.022099   -0.022099  2++20-0
      808   -0.021112    0.021112  2+02+0-
      843    0.021017    0.021017  +202+0-
      459   -0.020958    0.020958  20+2+-0

 State #    4  Energy =   -2235.693106739

      Det      Coef        Coefp    Occupancy (Ignoring core)
      ---      ----        ----    --------- --------- -----
       71    0.925333   -0.925333  2+22000
       36   -0.216994   -0.216994  22+2000
      177   -0.116891    0.116891  2+20200
        6    0.107485   -0.107485  22200+0
       38    0.089593   -0.089593  2202+00
       74   -0.088502    0.088502  2022+00
       78   -0.086800    0.086800  20220+0
      248   -0.067969    0.067969  2+02200
      109    0.054374   -0.054374  +-22+00
       39    0.049818    0.049818  2-+2+00
       73   -0.049809    0.049809  2+-2+00
      822   -0.049087    0.049087  2+02002
       16   -0.048346    0.048346  222000+
      113    0.039309   -0.039309  +-220+0
      122   -0.038857   -0.038857  +2-200+
       75   -0.038677   -0.038677  -+22+00
       42   -0.037385    0.037385  22020+0
      810    0.036123    0.036123  -++2+0-
       53   -0.035472   -0.035472  2-+200+
      123   -0.033047    0.033047  +-2200+
      112   -0.032983   -0.032983  +2-20+0
      332    0.030881   -0.030881  ++-2-0+
       52    0.028793   -0.028793  220200+
      878   -0.027531   -0.027531  ++-2+0-
      142    0.027388    0.027388  22+0200
       88    0.027049   -0.027049  202200+
      323   -0.025022    0.025022  +022-+0
      320   -0.025018   -0.025018  0+22200
      534   -0.024839   -0.024839  0+22020
      894   -0.024754   -0.024754  0+22002
      462   -0.024064    0.024064  2+02020
      264   -0.023372    0.023372  -++2-0+
      526   -0.022447   -0.022447  ++220-0
      841    0.022352   -0.022352  +2+200-
      806    0.021975    0.021975  2++200-
      809   -0.021116    0.021116  20+2+0-
      529    0.021038    0.021038  +022+-0
      458    0.020793   -0.020793  2+02+-0

 ---------------------------------------
    -DIABATIC STATES IN PROTOTYPES-     
 ---------------------------------------

     STATE:    1
 Group Ref#    Coefficients
     1    1    0.998227
     2    2   -0.000032
     3    3   -0.000163
     4    4   -0.000007

WEIGHT OF LISTED PROTOTYPES:   99.65%

     STATE:    2
 Group Ref#    Coefficients
     1    1   -0.000032
     2    2    0.995964
     3    3    0.000183
     4    4   -0.000378

WEIGHT OF LISTED PROTOTYPES:   99.19%

     STATE:    3
 Group Ref#    Coefficients
     1    1   -0.000164
     2    2    0.000183
     3    3    0.994921
     4    4    0.000082

WEIGHT OF LISTED PROTOTYPES:   98.99%

     STATE:    4
 Group Ref#    Coefficients
     1    1   -0.000007
     2    2   -0.000378
     3    3    0.000082
     4    4    0.995444

WEIGHT OF LISTED PROTOTYPES:   99.09%

     DIRECT MAX. DIABATIZATION FINISHED    
 CPU     0: STEP CPU TIME=     0.55 TOTAL CPU TIME=        318.9 (      5.3 MIN)
 TOTAL WALL CLOCK TIME=        332.2 SECONDS, CPU UTILIZATION IS    95.99%

DIABATS FOR SPIN-ORBIT CALCULATION ARE READY

TRANSITION DIPOLES BETWEEN ADIABATS (in A.U.):

STATE PAIR      X         Y         Z
    1    1  0.000845  0.000227  0.022948
    2    1  0.001818  0.024954 -0.465137
    2    2 -0.004436 -0.000843  0.034720
    3    1 -0.000865  0.001377  0.001246
    3    2  0.084184 -0.143435 -0.007370
    3    3  0.199710 -0.366407 -0.007461
    4    1 -0.001449 -0.000962  0.001914
    4    2  0.141546  0.085579  0.005124
    4    3 -0.367510 -0.198591 -0.012120
    4    4 -0.198624  0.367595  0.030311


TRANSITION DIPOLES BETWEEN DIABATS (in A.U.):

STATE PAIR      X         Y         Z
    1    1  0.001449 -0.000181  0.028466
    2    1 -0.002359 -0.031457  0.464466
    2    2 -0.005436 -0.000522  0.029177
    3    1 -0.016478  0.001662  0.000675
    3    2 -0.002662  0.164589  0.027132
    3    3  0.417682 -0.013109  0.012383
    4    1  0.003647 -0.016364 -0.001654
    4    2  0.165921  0.002762  0.002545
    4    3  0.013658  0.417259  0.022401
    4    4 -0.416200  0.014385  0.010492

TRANSITION DIPOLES BETWEEN DIRECT MAX. DIABATS (in A.U.):

STATE PAIR      X         Y         Z
    1    1  0.001449 -0.000181  0.028466
    2    1 -0.002359 -0.031457  0.464466
    2    2 -0.005436 -0.000522  0.029177
    3    1 -0.016478  0.001662  0.000675
    3    2 -0.002662  0.164589  0.027132
    3    3  0.417682 -0.013109  0.012383
    4    1  0.003647 -0.016363 -0.001654
    4    2  0.165921  0.002762  0.002545
    4    3  0.013658  0.417259  0.022401
    4    4 -0.416200  0.014385  0.010492
 No $TRANST Group Found.
 Quit without doing spin-orbit coupling
 ..... DONE WITH MP2 ENERGY .....
 CPU     0: STEP CPU TIME=     0.01 TOTAL CPU TIME=        318.9 (      5.3 MIN)
 TOTAL WALL CLOCK TIME=        332.2 SECONDS, CPU UTILIZATION IS    96.00%
            250000000  WORDS OF DYNAMIC MEMORY USED
 EXECUTION OF GAMESS TERMINATED NORMALLY Mon Dec  4 10:34:19 2023
 DDI: 14063448 bytes (13.4 MB / 1 MWords) used by master data server.
Note: The following floating-point exceptions are signalling: IEEE_DENORMAL

 ----------------------------------------
 CPU timing information for all processes
 ========================================
 0: 318.354 + 0.561 = 318.915
 1: 314.182 + 0.456 = 314.639
 ----------------------------------------
Note: The following floating-point exceptions are signalling: IEEE_DENORMAL
 ddikick.x: exited gracefully.
unset echo
----- accounting info -----
Files used on the master node io002 were:
-rw-r--r-- 1 bjb2chen nooijen   144635 Dec  4 10:28 /home/bjb2chen/gmsscr//AsH3cat_cct_gmcpt_C1_3st_diab_mode3_-0.05_mode1_+0.05.F05
-rw-r--r-- 1 bjb2chen nooijen  4706344 Dec  4 10:33 /home/bjb2chen/gmsscr//AsH3cat_cct_gmcpt_C1_3st_diab_mode3_-0.05_mode1_+0.05.F09
-rw-r--r-- 1 bjb2chen nooijen  7020624 Dec  4 10:32 /home/bjb2chen/gmsscr//AsH3cat_cct_gmcpt_C1_3st_diab_mode3_-0.05_mode1_+0.05.F09.001
-rw-r--r-- 1 bjb2chen nooijen  3010240 Dec  4 10:34 /home/bjb2chen/gmsscr//AsH3cat_cct_gmcpt_C1_3st_diab_mode3_-0.05_mode1_+0.05.F10
-rw-r--r-- 1 bjb2chen nooijen  1243840 Dec  4 10:32 /home/bjb2chen/gmsscr//AsH3cat_cct_gmcpt_C1_3st_diab_mode3_-0.05_mode1_+0.05.F13
-rw-r--r-- 1 bjb2chen nooijen  1243840 Dec  4 10:32 /home/bjb2chen/gmsscr//AsH3cat_cct_gmcpt_C1_3st_diab_mode3_-0.05_mode1_+0.05.F13.001
-rw-r--r-- 1 bjb2chen nooijen   181872 Dec  4 10:34 /home/bjb2chen/gmsscr//AsH3cat_cct_gmcpt_C1_3st_diab_mode3_-0.05_mode1_+0.05.F15
-rw-r--r-- 1 bjb2chen nooijen        0 Dec  4 10:28 /home/bjb2chen/gmsscr//AsH3cat_cct_gmcpt_C1_3st_diab_mode3_-0.05_mode1_+0.05.F16
-rw-r--r-- 1 bjb2chen nooijen     9808 Dec  4 10:32 /home/bjb2chen/gmsscr//AsH3cat_cct_gmcpt_C1_3st_diab_mode3_-0.05_mode1_+0.05.F70
-rw-r--r-- 1 bjb2chen nooijen     9808 Dec  4 10:32 /home/bjb2chen/gmsscr//AsH3cat_cct_gmcpt_C1_3st_diab_mode3_-0.05_mode1_+0.05.F70.001
-rw-r--r-- 1 bjb2chen nooijen     9808 Dec  4 10:32 /home/bjb2chen/gmsscr//AsH3cat_cct_gmcpt_C1_3st_diab_mode3_-0.05_mode1_+0.05.F71
-rw-r--r-- 1 bjb2chen nooijen     9808 Dec  4 10:32 /home/bjb2chen/gmsscr//AsH3cat_cct_gmcpt_C1_3st_diab_mode3_-0.05_mode1_+0.05.F71.001
-rw-r--r-- 1 bjb2chen nooijen    19608 Dec  4 10:32 /home/bjb2chen/gmsscr//AsH3cat_cct_gmcpt_C1_3st_diab_mode3_-0.05_mode1_+0.05.F72
-rw-r--r-- 1 bjb2chen nooijen    19608 Dec  4 10:32 /home/bjb2chen/gmsscr//AsH3cat_cct_gmcpt_C1_3st_diab_mode3_-0.05_mode1_+0.05.F72.001
-rw-r--r-- 1 bjb2chen nooijen    19608 Dec  4 10:32 /home/bjb2chen/gmsscr//AsH3cat_cct_gmcpt_C1_3st_diab_mode3_-0.05_mode1_+0.05.F73
-rw-r--r-- 1 bjb2chen nooijen    19608 Dec  4 10:32 /home/bjb2chen/gmsscr//AsH3cat_cct_gmcpt_C1_3st_diab_mode3_-0.05_mode1_+0.05.F73.001
-rw-r--r-- 1 bjb2chen nooijen   961208 Dec  4 10:33 /home/bjb2chen/gmsscr//AsH3cat_cct_gmcpt_C1_3st_diab_mode3_-0.05_mode1_+0.05.F74
-rw-r--r-- 1 bjb2chen nooijen   959640 Dec  4 10:33 /home/bjb2chen/gmsscr//AsH3cat_cct_gmcpt_C1_3st_diab_mode3_-0.05_mode1_+0.05.F74.001
-rw-r--r-- 1 bjb2chen nooijen        0 Dec  4 10:28 /home/bjb2chen/gmsscr//AsH3cat_cct_gmcpt_C1_3st_diab_mode3_-0.05_mode1_+0.05.F75
-rw-r--r-- 1 bjb2chen nooijen        0 Dec  4 10:28 /home/bjb2chen/gmsscr//AsH3cat_cct_gmcpt_C1_3st_diab_mode3_-0.05_mode1_+0.05.F75.001
-rw-r--r-- 1 bjb2chen nooijen    78456 Dec  4 10:32 /home/bjb2chen/gmsscr//AsH3cat_cct_gmcpt_C1_3st_diab_mode3_-0.05_mode1_+0.05.F76
-rw-r--r-- 1 bjb2chen nooijen    78456 Dec  4 10:32 /home/bjb2chen/gmsscr//AsH3cat_cct_gmcpt_C1_3st_diab_mode3_-0.05_mode1_+0.05.F76.001
-rw-r--r-- 1 bjb2chen nooijen        0 Dec  4 10:28 /home/bjb2chen/gmsscr//AsH3cat_cct_gmcpt_C1_3st_diab_mode3_-0.05_mode1_+0.05.F77
-rw-r--r-- 1 bjb2chen nooijen        0 Dec  4 10:28 /home/bjb2chen/gmsscr//AsH3cat_cct_gmcpt_C1_3st_diab_mode3_-0.05_mode1_+0.05.F77.001
-rw-r--r-- 1 bjb2chen nooijen     6408 Dec  4 10:33 /home/bjb2chen/gmsscr//AsH3cat_cct_gmcpt_C1_3st_diab_mode3_-0.05_mode1_+0.05.F78
-rw-r--r-- 1 bjb2chen nooijen     6408 Dec  4 10:33 /home/bjb2chen/gmsscr//AsH3cat_cct_gmcpt_C1_3st_diab_mode3_-0.05_mode1_+0.05.F78.001
-rw-r--r-- 1 bjb2chen nooijen    49008 Dec  4 10:33 /home/bjb2chen/gmsscr//AsH3cat_cct_gmcpt_C1_3st_diab_mode3_-0.05_mode1_+0.05.F79
-rw-r--r-- 1 bjb2chen nooijen    49008 Dec  4 10:33 /home/bjb2chen/gmsscr//AsH3cat_cct_gmcpt_C1_3st_diab_mode3_-0.05_mode1_+0.05.F79.001
-rw-r--r-- 1 bjb2chen nooijen      168 Dec  4 10:32 /home/bjb2chen/gmsscr//AsH3cat_cct_gmcpt_C1_3st_diab_mode3_-0.05_mode1_+0.05.F80
-rw-r--r-- 1 bjb2chen nooijen      168 Dec  4 10:32 /home/bjb2chen/gmsscr//AsH3cat_cct_gmcpt_C1_3st_diab_mode3_-0.05_mode1_+0.05.F80.001
-rw-r--r-- 1 bjb2chen nooijen   102416 Dec  4 10:33 /home/bjb2chen/gmsscr//AsH3cat_cct_gmcpt_C1_3st_diab_mode3_-0.05_mode1_+0.05.F81
-rw-r--r-- 1 bjb2chen nooijen   102416 Dec  4 10:33 /home/bjb2chen/gmsscr//AsH3cat_cct_gmcpt_C1_3st_diab_mode3_-0.05_mode1_+0.05.F81.001
-rw-r--r-- 1 bjb2chen nooijen      656 Dec  4 10:33 /home/bjb2chen/gmsscr//AsH3cat_cct_gmcpt_C1_3st_diab_mode3_-0.05_mode1_+0.05.F82
-rw-r--r-- 1 bjb2chen nooijen      656 Dec  4 10:33 /home/bjb2chen/gmsscr//AsH3cat_cct_gmcpt_C1_3st_diab_mode3_-0.05_mode1_+0.05.F82.001
-rw-r--r-- 1 bjb2chen nooijen    19216 Dec  4 10:33 /home/bjb2chen/gmsscr//AsH3cat_cct_gmcpt_C1_3st_diab_mode3_-0.05_mode1_+0.05.F83
-rw-r--r-- 1 bjb2chen nooijen    19216 Dec  4 10:33 /home/bjb2chen/gmsscr//AsH3cat_cct_gmcpt_C1_3st_diab_mode3_-0.05_mode1_+0.05.F83.001
-rw-r--r-- 1 bjb2chen nooijen   327696 Dec  4 10:33 /home/bjb2chen/gmsscr//AsH3cat_cct_gmcpt_C1_3st_diab_mode3_-0.05_mode1_+0.05.F84
-rw-r--r-- 1 bjb2chen nooijen   327696 Dec  4 10:33 /home/bjb2chen/gmsscr//AsH3cat_cct_gmcpt_C1_3st_diab_mode3_-0.05_mode1_+0.05.F84.001
-rw-r--r-- 1 bjb2chen nooijen  4057416 Dec  4 10:33 /home/bjb2chen/gmsscr//AsH3cat_cct_gmcpt_C1_3st_diab_mode3_-0.05_mode1_+0.05.F85
-rw-r--r-- 1 bjb2chen nooijen  4057416 Dec  4 10:33 /home/bjb2chen/gmsscr//AsH3cat_cct_gmcpt_C1_3st_diab_mode3_-0.05_mode1_+0.05.F85.001
-rw-r--r-- 1 bjb2chen nooijen 16713024 Dec  4 10:33 /home/bjb2chen/gmsscr//AsH3cat_cct_gmcpt_C1_3st_diab_mode3_-0.05_mode1_+0.05.F86
-rw-r--r-- 1 bjb2chen nooijen 16654912 Dec  4 10:33 /home/bjb2chen/gmsscr//AsH3cat_cct_gmcpt_C1_3st_diab_mode3_-0.05_mode1_+0.05.F86.001
-rw-r--r-- 1 bjb2chen nooijen     1160 Dec  4 10:34 /home/bjb2chen/gmsscr//AsH3cat_cct_gmcpt_C1_3st_diab_mode3_-0.05_mode1_+0.05.F87
-rw-r--r-- 1 bjb2chen nooijen     1160 Dec  4 10:34 /home/bjb2chen/gmsscr//AsH3cat_cct_gmcpt_C1_3st_diab_mode3_-0.05_mode1_+0.05.F87.001
-rw-r--r-- 1 bjb2chen nooijen    33152 Dec  4 10:34 /home/bjb2chen/gmsscr//AsH3cat_cct_gmcpt_C1_3st_diab_mode3_-0.05_mode1_+0.05.F88
-rw-r--r-- 1 bjb2chen nooijen    33152 Dec  4 10:34 /home/bjb2chen/gmsscr//AsH3cat_cct_gmcpt_C1_3st_diab_mode3_-0.05_mode1_+0.05.F88.001
-rw-r--r-- 1 bjb2chen nooijen      648 Dec  4 10:33 /home/bjb2chen/gmsscr//AsH3cat_cct_gmcpt_C1_3st_diab_mode3_-0.05_mode1_+0.05.F89
-rw-r--r-- 1 bjb2chen nooijen      648 Dec  4 10:33 /home/bjb2chen/gmsscr//AsH3cat_cct_gmcpt_C1_3st_diab_mode3_-0.05_mode1_+0.05.F89.001
-rw-r--r-- 1 bjb2chen nooijen        0 Dec  4 10:28 /home/bjb2chen/gmsscr//AsH3cat_cct_gmcpt_C1_3st_diab_mode3_-0.05_mode1_+0.05.F90
-rw-r--r-- 1 bjb2chen nooijen        0 Dec  4 10:28 /home/bjb2chen/gmsscr//AsH3cat_cct_gmcpt_C1_3st_diab_mode3_-0.05_mode1_+0.05.F90.001
-rw-r--r-- 1 bjb2chen nooijen    13760 Dec  4 10:34 /home/bjb2chen/gmsscr//AsH3cat_cct_gmcpt_C1_3st_diab_mode3_-0.05_mode1_+0.05.F91
-rw-r--r-- 1 bjb2chen nooijen    13760 Dec  4 10:34 /home/bjb2chen/gmsscr//AsH3cat_cct_gmcpt_C1_3st_diab_mode3_-0.05_mode1_+0.05.F91.001
-rw-r--r-- 1 bjb2chen nooijen    22776 Dec  4 10:33 /home/bjb2chen/gmsscr//AsH3cat_cct_gmcpt_C1_3st_diab_mode3_-0.05_mode1_+0.05.F92
-rw-r--r-- 1 bjb2chen nooijen    22776 Dec  4 10:33 /home/bjb2chen/gmsscr//AsH3cat_cct_gmcpt_C1_3st_diab_mode3_-0.05_mode1_+0.05.F92.001
-rw-r--r-- 1 bjb2chen nooijen    23168 Dec  4 10:33 /home/bjb2chen/gmsscr//AsH3cat_cct_gmcpt_C1_3st_diab_mode3_-0.05_mode1_+0.05.F93
-rw-r--r-- 1 bjb2chen nooijen    23168 Dec  4 10:33 /home/bjb2chen/gmsscr//AsH3cat_cct_gmcpt_C1_3st_diab_mode3_-0.05_mode1_+0.05.F93.001
-rw-r--r-- 1 bjb2chen nooijen    22776 Dec  4 10:33 /home/bjb2chen/gmsscr//AsH3cat_cct_gmcpt_C1_3st_diab_mode3_-0.05_mode1_+0.05.F94
-rw-r--r-- 1 bjb2chen nooijen    22776 Dec  4 10:33 /home/bjb2chen/gmsscr//AsH3cat_cct_gmcpt_C1_3st_diab_mode3_-0.05_mode1_+0.05.F94.001
-rw-r--r-- 1 bjb2chen nooijen    13760 Dec  4 10:33 /home/bjb2chen/gmsscr//AsH3cat_cct_gmcpt_C1_3st_diab_mode3_-0.05_mode1_+0.05.F95
-rw-r--r-- 1 bjb2chen nooijen    13760 Dec  4 10:33 /home/bjb2chen/gmsscr//AsH3cat_cct_gmcpt_C1_3st_diab_mode3_-0.05_mode1_+0.05.F95.001
-rw-r--r-- 1 bjb2chen nooijen    39248 Dec  4 10:34 /home/bjb2chen/gmsscr//AsH3cat_cct_gmcpt_C1_3st_diab_mode3_-0.05_mode1_+0.05.F96
-rw-r--r-- 1 bjb2chen nooijen    39248 Dec  4 10:34 /home/bjb2chen/gmsscr//AsH3cat_cct_gmcpt_C1_3st_diab_mode3_-0.05_mode1_+0.05.F96.001
-rw-r--r-- 1 bjb2chen nooijen     1184 Dec  4 10:33 /home/bjb2chen/gmsscr//AsH3cat_cct_gmcpt_C1_3st_diab_mode3_-0.05_mode1_+0.05.F97
-rw-r--r-- 1 bjb2chen nooijen     1184 Dec  4 10:33 /home/bjb2chen/gmsscr//AsH3cat_cct_gmcpt_C1_3st_diab_mode3_-0.05_mode1_+0.05.F97.001
-rw-r--r-- 1 bjb2chen nooijen     9808 Dec  4 10:32 /home/bjb2chen/gmsscr//AsH3cat_cct_gmcpt_C1_3st_diab_mode3_-0.05_mode1_+0.05.F98
-rw-r--r-- 1 bjb2chen nooijen     9808 Dec  4 10:32 /home/bjb2chen/gmsscr//AsH3cat_cct_gmcpt_C1_3st_diab_mode3_-0.05_mode1_+0.05.F98.001
-rw-r--r-- 1 bjb2chen nooijen    30264 Dec  4 10:33 /home/bjb2chen/gmsscr//AsH3cat_cct_gmcpt_C1_3st_diab_mode3_-0.05_mode1_+0.05.F99
-rw-r--r-- 1 bjb2chen nooijen    30264 Dec  4 10:33 /home/bjb2chen/gmsscr//AsH3cat_cct_gmcpt_C1_3st_diab_mode3_-0.05_mode1_+0.05.F99.001
ls: No match.
ls: No match.
ls: No match.
Mon 04 Dec 2023 10:34:23 AM EST
0.185u 0.023s 5:35.54 0.0%	0+0k 288+496io 0pf+0w
