----- GAMESS execution script 'rungms' -----
This job is running on host io001
under operating system Linux at Mon 04 Dec 2023 10:28:44 AM EST
Available scratch disk space (Kbyte units) at beginning of the job is
Filesystem             1K-blocks       Used Available Use% Mounted on
helmholtz.nlogn:/home 6391504896 5230537728 838829056  87% /home
GAMESS temporary binary files will be written to /home/bjb2chen/gmsscr/
GAMESS supplementary output files will be written to /home/bjb2chen/gamess/vibronics/ash3/4state
Copying input file AsH3cat_cct_gmcpt_C1_3st_diab_mode1_+0.05x2.inp to your run's scratch directory...
cp AsH3cat_cct_gmcpt_C1_3st_diab_mode1_+0.05x2.inp /home/bjb2chen/gmsscr//AsH3cat_cct_gmcpt_C1_3st_diab_mode1_+0.05x2.F05
unset echo
 
Assuming a single but multicore node.
 
/home/bjb2chen/gamess/ddikick.x /home/bjb2chen/gamess/gamess.00.x AsH3cat_cct_gmcpt_C1_3st_diab_mode1_+0.05x2 -ddi 1 2 io001:cpus=2 -scr /home/bjb2chen/gmsscr/

 Distributed Data Interface kickoff program.
 Initiating 2 compute processes on 1 nodes to run the following command:
 /home/bjb2chen/gamess/gamess.00.x AsH3cat_cct_gmcpt_C1_3st_diab_mode1_+0.05x2 

          ******************************************************
          *         GAMESS VERSION = 02 AUG 2018 (R2)         *
          *             FROM IOWA STATE UNIVERSITY             *
          * M.W.SCHMIDT, K.K.BALDRIDGE, J.A.BOATZ, S.T.ELBERT, *
          *   M.S.GORDON, J.H.JENSEN, S.KOSEKI, N.MATSUNAGA,   *
          *          K.A.NGUYEN, S.J.SU, T.L.WINDUS,           *
          *       TOGETHER WITH M.DUPUIS, J.A.MONTGOMERY       *
          *         J.COMPUT.CHEM.  14, 1347-1363(1993)        *
          **************** 64 BIT LINUX VERSION ****************

  SINCE 1993, STUDENTS AND POSTDOCS WORKING AT IOWA STATE UNIVERSITY
  AND ALSO IN THEIR VARIOUS JOBS AFTER LEAVING ISU HAVE MADE IMPORTANT
  CONTRIBUTIONS TO THE CODE:
     IVANA ADAMOVIC, CHRISTINE AIKENS, YURI ALEXEEV, POOJA ARORA,
     ANDREY ASADCHEV, ROB BELL, PRADIPTA BANDYOPADHYAY, JONATHAN BENTZ,
     BRETT BODE, KURT BRORSEN, CALEB CARLIN, GALINA CHABAN, WEI CHEN,
     CHEOL HO CHOI, PAUL DAY, ALBERT DEFUSCO, NUWAN DESILVA, TIM DUDLEY,
     DMITRI FEDOROV, ALEX FINDLATER, GRAHAM FLETCHER, MARK FREITAG,
     KURT GLAESEMANN, ANASTASIA GUININA,
     DAN KEMP, GRANT MERRILL, NORIYUKI MINEZAWA, JONATHAN MULLIN,
     TAKESHI NAGATA, SEAN NEDD, HEATHER NETZLOFF, BOSILJKA NJEGIC, RYAN OLSON,
     MIKE PAK, BUU PHAM,
     SPENCER PRUITT, LUKE ROSKOP, JIM SHOEMAKER, LYUDMILA SLIPCHENKO,
     TONY SMITH, SAROM SOK LEANG, JIE SONG, TETSUYA TAKETSUGU, SIMON WEBB,
     PENG XU, SOOHAENG YOO, FEDERICO ZAHARIEV

  ADDITIONAL CODE HAS BEEN PROVIDED BY COLLABORATORS IN OTHER GROUPS:
     IOWA STATE UNIVERSITY:
          JOE IVANIC, AARON WEST, LAIMUTIS BYTAUTAS, KLAUS RUEDENBERG
     UNIVERSITY OF TOKYO: KIMIHIKO HIRAO, TAKAHITO NAKAJIMA,
          TAKAO TSUNEDA, MUNEAKI KAMIYA, SUSUMU YANAGISAWA,
          KIYOSHI YAGI, MAHITO CHIBA, SEIKEN TOKURA, NAOAKI KAWAKAMI
     UNIVERSITY OF AARHUS: FRANK JENSEN
     UNIVERSITY OF IOWA: VISVALDAS KAIRYS, HUI LI
     NATIONAL INST. OF STANDARDS AND TECHNOLOGY: WALT STEVENS, DAVID GARMER
     UNIVERSITY OF PISA: BENEDETTA MENNUCCI, JACOPO TOMASI
     UNIVERSITY OF MEMPHIS: HENRY KURTZ, PRAKASHAN KORAMBATH
     UNIVERSITY OF ALBERTA: TOBY ZENG, MARIUSZ KLOBUKOWSKI
     UNIVERSITY OF NEW ENGLAND: MARK SPACKMAN
     MIE UNIVERSITY: HIROAKI UMEDA
     NAT. INST. OF ADVANCED INDUSTRIAL SCIENCE AND TECHNOLOGY: KAZUO KITAURA
     MICHIGAN STATE UNIVERSITY:
          KAROL KOWALSKI, MARTA WLOCH, JEFFREY GOUR, JESSE LUTZ,
          WEI LI, JUN SHEN, J. EMILIANO DEUSTUA, PIOTR PIECUCH
     UNIVERSITY OF MINNESOTA:
          YINAN SHU
     UNIVERSITY OF SILESIA: MONIKA MUSIAL, STANISLAW KUCHARSKI
     FACULTES UNIVERSITAIRES NOTRE-DAME DE LA PAIX:
          OLIVIER QUINET, BENOIT CHAMPAGNE
     UNIVERSITY OF CALIFORNIA - SANTA BARBARA: BERNARD KIRTMAN
     INSTITUTE FOR MOLECULAR SCIENCE:
          KAZUYA ISHIMURA, MICHIO KATOUDA, AND SHIGERU NAGASE
     UNIVERSITY OF NOTRE DAME: ANNA POMOGAEVA, DAN CHIPMAN
     KYUSHU UNIVERSITY:
          HARUYUKI NAKANO,
          FENG LONG GU, JACEK KORCHOWIEC, MARCIN MAKOWSKI, AND YURIKO AOKI,
          HIROTOSHI MORI AND EISAKU MIYOSHI
     PENNSYLVANIA STATE UNIVERSITY:
          TZVETELIN IORDANOV, CHET SWALINA, JONATHAN SKONE,
          SHARON HAMMES-SCHIFFER
     WASEDA UNIVERSITY:
          MASATO KOBAYASHI, TOMOKO AKAMA, TSUGUKI TOUMA,
          TAKESHI YOSHIKAWA, YASUHIRO IKABATA, JUNJI SEINO,
          YUYA NAKAJIMA, HIROMI NAKAI
     NANJING UNIVERSITY: SHUHUA LI
     UNIVERSITY OF NEBRASKA:
          PEIFENG SU, DEJUN SI, NANDUN THELLAMUREGE, YALI WANG, HUI LI
     UNIVERSITY OF ZURICH: ROBERTO PEVERATI, KIM BALDRIDGE
     N. COPERNICUS UNIVERSITY AND JACKSON STATE UNIVERSITY:
          MARIA BARYSZ
     UNIVERSITY OF COPENHAGEN: Jimmy Kromann, CASPER STEINMANN
     TOKYO INSTITUTE OF TECHNOLOGY: HIROYA NAKATA
     NAGOYA UNIVERSITY: YOSHIO NISHIMOTO, STEPHAN IRLE
     MOSCOW STATE UNIVERSITY: VLADIMIR MIRONOV


 PARALLEL VERSION RUNNING ON        2 PROCESSORS IN        1 NODES.

 EXECUTION OF GAMESS BEGUN Mon Dec  4 10:28:44 2023

            ECHO OF THE FIRST FEW INPUT CARDS -
 INPUT CARD> !Step 4: Calculation using REFDET                                              
 INPUT CARD> $system kdiag=3 mwords=250 memddi=8000 parall=.t. $end                         
 INPUT CARD> $contrl runtyp=energy ispher=1 $end                                            
 INPUT CARD> $contrl icut=9 itol=20 inttyp=rysquad qmttol=1.0d-05 nosym=1 $end              
 INPUT CARD> $scf    npunch=2 conv=1.0d-06 dirscf=.t. diis=.t. soscf=.f. ethrsh=10.0 $end   
 INPUT CARD> $contrl scftyp=mcscf  mult=2 maxit=200 icharg=1 mplevl=2 $end                  
 INPUT CARD> $guess  guess=moread norb=85 purify=.t. $end                                   
 INPUT CARD> $basis  gbasis=cct $end                                                        
 INPUT CARD> $mcscf  cistep=gmcci fullnr=.t. finci=mos                                      
 INPUT CARD>         acurcy=1.d-6 maxit=200 $end                                            
 INPUT CARD> $trans  dirtrf=.t. $end                                                        
 INPUT CARD> $mrmp   mrpt=gmcpt rdvecs=.f. $end                                             
 INPUT CARD> $gmcpt  nmofzc=5 nmodoc=9 nmoact=7 nelact=7 stsym(1)=A                         
 INPUT CARD>         reftyp=ormas nspace=1 mstart(1)=15 mine(1)=7 maxe(1)=7                 
 INPUT CARD>         kstate(1)=1,1,1,1                                                      
 INPUT CARD>         wstate(1)=1,1,1,1                                                      
 INPUT CARD>         iwgt=0 thrwgt=-1.0 krot=.f. kszdoe=.f. knospn=.f.                      
 INPUT CARD>         thrde=-1.0 edshft=0.02 $end                                            
 INPUT CARD> $statpt hssend=.t. $end                                                        
 INPUT CARD> $end                                                                           
 INPUT CARD>--- Semi-canonical MOs --- generated at Mon Dec  4 10:21:58 2023                
 INPUT CARD> $VEC                                                                           
 INPUT CARD> 1  1 9.99999416E-01 7.29973887E-07-3.99440478E-06-4.81875831E-06 1.63484706E-05
 INPUT CARD> 1  2 5.36732169E-06-0.00000000E+00-0.00000000E+00-0.00000000E+00 4.03838885E-11
 INPUT CARD> 1  3-0.00000000E+00-0.00000000E+00 7.96211074E-11 1.14517212E-11-0.00000000E+00
 INPUT CARD> 1  4-1.40849369E-11-0.00000000E+00-0.00000000E+00-2.21867430E-11-0.00000000E+00
 INPUT CARD> 1  5-0.00000000E+00 1.08959399E-07 1.08961145E-07-2.17920544E-07-0.00000000E+00
 INPUT CARD> 1  6-0.00000000E+00-0.00000000E+00 7.02728157E-08 7.02573272E-08-1.40530143E-07
 INPUT CARD> 1  7-0.00000000E+00-0.00000000E+00-0.00000000E+00 8.61676265E-08 8.61266319E-08
 INPUT CARD> 1  8-1.72294258E-07-0.00000000E+00-0.00000000E+00-0.00000000E+00 1.61185015E-07
 INPUT CARD> 1  9-0.00000000E+00-0.00000000E+00-0.00000000E+00-0.00000000E+00-2.16246982E-07
 INPUT CARD> 1 10-0.00000000E+00-0.00000000E+00-0.00000000E+00-0.00000000E+00-2.29650252E-07
 INPUT CARD> 1 11-4.66898658E-07-1.12343498E-06-6.64097518E-08 1.15015824E-07-0.00000000E+00
 INPUT CARD> 1 12-1.90369794E-07 3.29734733E-07-0.00000000E+00 4.67684240E-08-2.10541491E-07
 INPUT CARD> 1 13 1.63773067E-07 2.57316182E-07-0.00000000E+00-0.00000000E+00-2.29652599E-07
 INPUT CARD> 1 14-4.66879487E-07-1.12342770E-06-6.64102175E-08-1.15016523E-07-0.00000000E+00
 INPUT CARD> 1 15-1.90364897E-07-3.29724918E-07-0.00000000E+00 4.67679470E-08-2.10540564E-07
 INPUT CARD> 1 16 1.63772617E-07-2.57315196E-07-0.00000000E+00-0.00000000E+00-2.29639944E-07
 INPUT CARD> 1 17-4.66987046E-07-1.12340031E-06 1.32807841E-07-0.00000000E+00-0.00000000E+00
 INPUT CARD> 1 18 3.80780830E-07-0.00000000E+00-0.00000000E+00-3.39206184E-07 1.75440103E-07
 INPUT CARD> 1 19 1.63766080E-07-0.00000000E+00-0.00000000E+00-0.00000000E+00               
 INPUT CARD> 2  1 2.72313662E-06 1.00010341E+00 1.34746909E-04 1.43214017E-04-4.26044547E-04
 INPUT CARD> 2  2-1.40486446E-04 7.10299112E-11-7.88863849E-11-0.00000000E+00-5.42197215E-11
 INPUT CARD> 2  3-1.27361486E-11-0.00000000E+00-1.68049866E-10-3.19745914E-11-0.00000000E+00
 INPUT CARD> 2  4 2.95588732E-11-0.00000000E+00-0.00000000E+00-0.00000000E+00-0.00000000E+00
 INPUT CARD> 2  5-0.00000000E+00-6.69941071E-07-6.69957164E-07 1.33989824E-06-0.00000000E+00
 INPUT CARD> 2  6-0.00000000E+00-0.00000000E+00-2.23303604E-06-2.23305293E-06 4.46608898E-06
 INPUT CARD> 2  7-0.00000000E+00-0.00000000E+00-0.00000000E+00-1.84537905E-06-1.84515653E-06
 INPUT CARD> 2  8 3.69053558E-06 1.25718203E-11-0.00000000E+00-0.00000000E+00-6.15992627E-06
 INPUT CARD> 2  9-0.00000000E+00-0.00000000E+00-0.00000000E+00-0.00000000E+00 8.26439636E-06
  250000000 WORDS OF MEMORY AVAILABLE

     BASIS OPTIONS
     -------------
     GBASIS=CCT          IGAUSS=       0      POLAR=NONE    
     NDFUNC=       0     NFFUNC=       0     DIFFSP=       F
     NPFUNC=       0      DIFFS=       F     BASNAM=        


     RUN TITLE
     ---------
 AsH3+ calculation at 4 states                                                   

 THE POINT GROUP OF THE MOLECULE IS C1      
 THE ORDER OF THE PRINCIPAL AXIS IS     0

 ATOM      ATOMIC                      COORDINATES (BOHR)
           CHARGE         X                   Y                   Z
 AS         33.0     0.0000000000        0.0000000000       -0.0007541430
 H           1.0    -1.3842524017        2.3975954838        0.0186860760
 H           1.0    -1.3842523964       -2.3975954871        0.0186860756
 H           1.0     2.7685047980        0.0000000030        0.0186860750

          INTERNUCLEAR DISTANCES (ANGS.)
          ------------------------------

                1 AS         2 H          3 H          4 H     

   1 AS      0.0000000    1.4650659 *  1.4650659 *  1.4650659 *
   2 H       1.4650659 *  0.0000000    2.5375060 *  2.5375060 *
   3 H       1.4650659 *  2.5375060 *  0.0000000    2.5375060 *
   4 H       1.4650659 *  2.5375060 *  2.5375060 *  0.0000000  

  * ... LESS THAN  3.000


     ATOMIC BASIS SET
     ----------------
 THE CONTRACTED PRIMITIVE FUNCTIONS HAVE BEEN UNNORMALIZED
 THE CONTRACTED BASIS FUNCTIONS ARE NOW NORMALIZED TO UNITY

  SHELL TYPE  PRIMITIVE        EXPONENT          CONTRACTION COEFFICIENT(S)

 AS        

      1   S       1       8482340.0000000    0.000006800003
      1   S       2       1270151.0000000    0.000052800023
      1   S       3        289057.0000000    0.000277400122
      1   S       4         81879.8500000    0.001170200514
      1   S       5         26716.5600000    0.004242101862
      1   S       6          9647.5840000    0.013655705995
      1   S       7          3764.1190000    0.039339917271
      1   S       8          1561.5660000    0.099929243872
      1   S       9           680.8147000    0.212155593142
      1   S      10           309.2412000    0.336386747683
      1   S      11           145.2574000    0.315512638518
      1   S      12            69.7390500    0.118131251863
      1   S      13            31.7703200    0.008007603516
      1   S      14            15.3917600    0.000329300145
      1   S      15             7.3415260   -0.000152300067
      1   S      16             3.3237160    0.000024700011
      1   S      17             1.4858670   -0.000036600016
      1   S      18             0.2115000   -0.000009400004

      2   S      19       8482340.0000000   -0.000002099844
      2   S      20       1270151.0000000   -0.000016498771
      2   S      21        289057.0000000   -0.000086593551
      2   S      22         81879.8500000   -0.000365272798
      2   S      23         26716.5600000   -0.001330800894
      2   S      24          9647.5840000   -0.004308979105
      2   S      25          3764.1190000   -0.012696354487
      2   S      26          1561.5660000   -0.033613496762
      2   S      27           680.8147000   -0.078941121158
      2   S      28           309.2412000   -0.151434522485
      2   S      29           145.2574000   -0.204186194004
      2   S      30            69.7390500   -0.055732549529
      2   S      31            31.7703200    0.418729516699
      2   S      32            15.3917600    0.575833316987
      2   S      33             7.3415260    0.169671564351
      2   S      34             3.3237160    0.006065748276
      2   S      35             1.4858670    0.001760368903
      2   S      36             0.2115000    0.000231582754

      3   S      37       8482340.0000000    0.000000818623
      3   S      38       1270151.0000000    0.000006548987
      3   S      39        289057.0000000    0.000034484509
      3   S      40         81879.8500000    0.000145612630
      3   S      41         26716.5600000    0.000530877249
      3   S      42          9647.5840000    0.001719313712
      3   S      43          3764.1190000    0.005083344082
      3   S      44          1561.5660000    0.013519053150
      3   S      45           680.8147000    0.032188884481
      3   S      46           309.2412000    0.063284292808
      3   S      47           145.2574000    0.090004159277
      3   S      48            69.7390500    0.026354351138
      3   S      49            31.7703200   -0.251262012099
      3   S      50            15.3917600   -0.520907644337
      3   S      51             7.3415260   -0.056868639208
      3   S      52             3.3237160    0.724870110338
      3   S      53             1.4858670    0.535280112340
      3   S      54             0.2115000   -0.011376408833

      4   S      55       8482340.0000000   -0.000000322182
      4   S      56       1270151.0000000   -0.000002899636
      4   S      57        289057.0000000   -0.000014981451
      4   S      58         81879.8500000   -0.000063147623
      4   S      59         26716.5600000   -0.000230198862
      4   S      60          9647.5840000   -0.000745689664
      4   S      61          3764.1190000   -0.002204850817
      4   S      62          1561.5660000   -0.005870151514
      4   S      63           680.8147000   -0.013996219653
      4   S      64           309.2412000   -0.027636106289
      4   S      65           145.2574000   -0.039550065282
      4   S      66            69.7390500   -0.011844045553
      4   S      67            31.7703200    0.115999445484
      4   S      68            15.3917600    0.253920137348
      4   S      69             7.3415260    0.022886825089
      4   S      70             3.3237160   -0.459365613804
      4   S      71             1.4858670   -0.625893951029
      4   S      72             0.2115000    1.046339525967

      5   S      73             0.4210860    1.000000000000

      6   S      74             0.0889740    1.000000000000

      7   P      75          7423.8610000    0.000459888095
      7   P      76          1759.5170000    0.003982196918
      7   P      77           570.2292000    0.021463244409
      7   P      78           216.5800000    0.082459565479
      7   P      79            90.7342500    0.223884404601
      7   P      80            40.3087900    0.392060251256
      7   P      81            18.5555000    0.354214630915
      7   P      82             8.3965430    0.104861385592
      7   P      83             3.7673670    0.003366312861
      7   P      84             1.6297010    0.001849452126
      7   P      85             0.2225030    0.000229694054

      8   P      86          7423.8610000   -0.000183933273
      8   P      87          1759.5170000   -0.001603623364
      8   P      88           570.2292000   -0.008714684634
      8   P      89           216.5800000   -0.034482567311
      8   P      90            90.7342500   -0.097731519242
      8   P      91            40.3087900   -0.183894927481
      8   P      92            18.5555000   -0.150374370146
      8   P      93             8.3965430    0.201569541112
      8   P      94             3.7673670    0.550783570924
      8   P      95             1.6297010    0.395483295494
      8   P      96             0.2225030   -0.005537068181

      9   P      97          7423.8610000    0.000067575484
      9   P      98          1759.5170000    0.000590735054
      9   P      99           570.2292000    0.003209920148
      9   P     100           216.5800000    0.012757201241
      9   P     101            90.7342500    0.036296841475
      9   P     102            40.3087900    0.069067055648
      9   P     103            18.5555000    0.055084858236
      9   P     104             8.3965430   -0.092951347783
      9   P     105             3.7673670   -0.256062306212
      9   P     106             1.6297010   -0.211535143443
      9   P     107             0.2225030    0.991664800915

     10   P     108             0.5682630    1.000000000000

     11   P     109             0.0804050    1.000000000000

     12   D     110           321.0196000    0.001738948853
     12   D     111            96.2493100    0.014620594557
     12   D     112            36.6449600    0.064875906626
     12   D     113            15.4939600    0.184323725081
     12   D     114             6.8911380    0.331417629149
     12   D     115             3.0548310    0.389664464481
     12   D     116             1.3142410    0.283997092847

     13   D     117             0.5134300    1.000000000000

     14   D     118             0.1877000    1.000000000000

     15   F     119             0.4158000    1.000000000000

 H         

     16   S     120            33.8700000    0.025494863235
     16   S     121             5.0950000    0.190362765893
     16   S     122             1.1590000    0.852162022245

     17   S     123             0.3258000    1.000000000000

     18   S     124             0.1027000    1.000000000000

     19   P     125             1.4070000    1.000000000000

     20   P     126             0.3880000    1.000000000000

     21   D     127             1.0570000    1.000000000000

 H         

     22   S     128            33.8700000    0.025494863235
     22   S     129             5.0950000    0.190362765893
     22   S     130             1.1590000    0.852162022245

     23   S     131             0.3258000    1.000000000000

     24   S     132             0.1027000    1.000000000000

     25   P     133             1.4070000    1.000000000000

     26   P     134             0.3880000    1.000000000000

     27   D     135             1.0570000    1.000000000000

 H         

     28   S     136            33.8700000    0.025494863235
     28   S     137             5.0950000    0.190362765893
     28   S     138             1.1590000    0.852162022245

     29   S     139             0.3258000    1.000000000000

     30   S     140             0.1027000    1.000000000000

     31   P     141             1.4070000    1.000000000000

     32   P     142             0.3880000    1.000000000000

     33   D     143             1.0570000    1.000000000000

 TOTAL NUMBER OF BASIS SET SHELLS             =   33
 NUMBER OF CARTESIAN GAUSSIAN BASIS FUNCTIONS =   94
 NOTE: THIS RUN WILL RESTRICT THE MO VARIATION SPACE TO SPHERICAL HARMONICS.
 THE NUMBER OF ORBITALS KEPT IN THE VARIATIONAL SPACE WILL BE PRINTED LATER.
 NUMBER OF ELECTRONS                          =   35
 CHARGE OF MOLECULE                           =    1
 SPIN MULTIPLICITY                            =    2
 NUMBER OF OCCUPIED ORBITALS (ALPHA)          =   18
 NUMBER OF OCCUPIED ORBITALS (BETA )          =   17
 TOTAL NUMBER OF ATOMS                        =    4
 THE NUCLEAR REPULSION ENERGY IS       36.3841197810

     $CONTRL OPTIONS
     ---------------
 SCFTYP=MCSCF        RUNTYP=ENERGY       EXETYP=RUN     
 MPLEVL=       2     CITYP =NONE         CCTYP =NONE         VBTYP =NONE    
 DFTTYP=NONE         TDDFT =NONE    
 MULT  =       2     ICHARG=       1     NZVAR =       0     COORD =UNIQUE  
 PP    =NONE         RELWFN=NONE         LOCAL =NONE         NUMGRD=       F
 ISPHER=       1     NOSYM =       1     MAXIT =     200     UNITS =ANGS    
 PLTORB=       F     MOLPLT=       F     AIMPAC=       F     FRIEND=        
 NPRINT=       7     IREST =       0     GEOM  =INPUT   
 NORMF =       0     NORMP =       0     ITOL  =      20     ICUT  =       9
 INTTYP=RYSQUAD      GRDTYP=BEST         QMTTOL= 1.0E-05

     $SYSTEM OPTIONS
     ---------------
  REPLICATED MEMORY=   250000000 WORDS (ON EVERY NODE).
 DISTRIBUTED MEMDDI=        8000 MILLION WORDS IN AGGREGATE,
 MEMDDI DISTRIBUTED OVER   2 PROCESSORS IS  4000000000 WORDS/PROCESSOR.
 TOTAL MEMORY REQUESTED ON EACH PROCESSOR=  4250000000 WORDS.
 TIMLIM=      525600.00 MINUTES, OR     365.0 DAYS.
 PARALL= T  BALTYP=  DLB     KDIAG=    3  COREFL= F
 MXSEQ2=     300 MXSEQ3=     150  mem10=         0

          ----------------
          PROPERTIES INPUT
          ----------------

     MOMENTS            FIELD           POTENTIAL          DENSITY
 IEMOM =       1   IEFLD =       0   IEPOT =       0   IEDEN =       0
 WHERE =COMASS     WHERE =NUCLEI     WHERE =NUCLEI     WHERE =NUCLEI  
 OUTPUT=BOTH       OUTPUT=BOTH       OUTPUT=BOTH       OUTPUT=BOTH    
 IEMINT=       0   IEFINT=       0                     IEDINT=       0
                                                       MORB  =       0

     -------------------------------
     INTEGRAL TRANSFORMATION OPTIONS
     -------------------------------
     NWORD  =            0
     CUTOFF = 1.0E-09     MPTRAN =       0
     DIRTRF =       T     AOINTS =DUP     

          ----------------------
          MCSCF INPUT PARAMETERS
          ----------------------
 CONVERGER SELECTION: FOCAS = F  SOSCF = F  FULLNR = T  QUD = F  JACOBI = F
 SECULAR EQUATION METHOD CISTEP = GMCCI   
 --- GENERAL INPUT OPTIONS:
 MAXIT =     200  MICIT =       1  ACURCY= 1.000E-06
 DAMP  =   0.000  CANONC=       T  ENGTOL= 1.000E-10
 EKT   =       F  NPUNCH=       2  NWORD =         0
 REGENERATE CI AFTER CONVERGENCE = NONE    
 DIABATIZATION AFTER CONVERGENCE =        F
 --- INPUT FOR FULLNR CONVERGER:
 METHOD=DM2       FORS  =       F  DROPC =       T
 LINSER=       F  FCORE =       F  NORB  =      94

          ----------------------
          INTEGRAL INPUT OPTIONS
          ----------------------
 NOPK  =       1 NORDER=       0 SCHWRZ=       T

 ------------------------------------------
 MULTIREFERENCE PERTURBATION THEORY CONTROL
 ------------------------------------------
 MRPT=GMCPT    READ CONVERGED MCSCF VECTORS= F


     ------------------------------------------
     THE POINT GROUP IS C1 , NAXIS= 1, ORDER= 1
     ------------------------------------------

 -- VARIATIONAL SPACE WILL BE RESTRICTED TO PURE SPHERICAL HARMONICS ONLY --
 AFTER EXCLUDING CONTAMINANT COMBINATIONS FROM THE CARTESIAN GAUSSIAN BASIS
 SET, THE NUMBER OF SPHERICAL HARMONICS KEPT IN THE VARIATION SPACE IS   85

     DIMENSIONS OF THE SYMMETRY SUBSPACES ARE
 A   =   85

 ..... DONE SETTING UP THE RUN .....
 CPU     0: STEP CPU TIME=     0.14 TOTAL CPU TIME=          0.1 (      0.0 MIN)
 TOTAL WALL CLOCK TIME=          0.4 SECONDS, CPU UTILIZATION IS    34.15%

          ********************
          1 ELECTRON INTEGRALS
          ********************
 TIME TO DO   DIPOLE INTEGRALS=      0.02
 ...... END OF ONE-ELECTRON INTEGRALS ......
 CPU     0: STEP CPU TIME=     0.02 TOTAL CPU TIME=          0.2 (      0.0 MIN)
 TOTAL WALL CLOCK TIME=          0.4 SECONDS, CPU UTILIZATION IS    37.21%

          -------------
          GUESS OPTIONS
          -------------
          GUESS =MOREAD            NORB  =      85          NORDER=       0
          MIX   =       F          PRTMO =       F          PUNMO =       F
          TOLZ  = 1.0E-08          TOLE  = 1.0E-05
          SYMDEN=       F          PURIFY=       T

 INITIAL GUESS ORBITALS GENERATED BY MOREAD   ROUTINE.

 STATISTICS FOR GENERATION OF SYMMETRY ORBITAL -Q- MATRIX
 NUMBER OF CARTESIAN ATOMIC ORBITALS=         94
 NUMBER OF SPHERICAL CONTAMINANTS DROPPED=     9
 NUMBER OF LINEARLY DEPENDENT MOS DROPPED=     0
 TOTAL NUMBER OF MOS IN VARIATION SPACE=      85
 ORBITAL PURIFICATION WILL OCCUR

 SYMMETRIES FOR INITIAL GUESS ORBITALS FOLLOW.   BOTH SET(S).
    18 ORBITALS ARE OCCUPIED (   14 CORE ORBITALS).
     1=A        2=A        3=A        4=A        5=A        6=A        7=A   
     8=A        9=A       10=A       11=A       12=A       13=A       14=A   
    15=A       16=A       17=A       18=A       19=A       20=A       21=A   
    22=A       23=A       24=A       25=A       26=A       27=A       28=A   
    29=A       30=A       31=A       32=A       33=A       34=A       35=A   
    36=A       37=A       38=A       39=A       40=A       41=A       42=A   
    43=A       44=A       45=A       46=A       47=A       48=A       49=A   
    50=A       51=A       52=A       53=A       54=A       55=A       56=A   
    57=A       58=A       59=A       60=A       61=A       62=A       63=A   
    64=A       65=A       66=A       67=A       68=A       69=A       70=A   
    71=A       72=A       73=A       74=A       75=A       76=A       77=A   
    78=A       79=A       80=A       81=A       82=A       83=A       84=A   
    85=A   
 ...... END OF INITIAL ORBITAL SELECTION ......
 CPU     0: STEP CPU TIME=     0.09 TOTAL CPU TIME=          0.2 (      0.0 MIN)
 TOTAL WALL CLOCK TIME=          0.6 SECONDS, CPU UTILIZATION IS    42.37%

                    ----------------------
                    AO INTEGRAL TECHNOLOGY
                    ----------------------
     S,P,L SHELL ROTATED AXIS INTEGRALS, REPROGRAMMED BY
        KAZUYA ISHIMURA (IMS) AND JOSE SIERRA (SYNSTAR).
     S,P,D,L SHELL ROTATED AXIS INTEGRALS PROGRAMMED BY
        KAZUYA ISHIMURA (INSTITUTE FOR MOLECULAR SCIENCE).
     S,P,D,F,G SHELL TO TOTAL QUARTET ANGULAR MOMENTUM SUM 5,
        ERIC PROGRAM BY GRAHAM FLETCHER (ELORET AND NASA ADVANCED
        SUPERCOMPUTING DIVISION, AMES RESEARCH CENTER).
     S,P,D,F,G,L SHELL GENERAL RYS QUADRATURE PROGRAMMED BY
        MICHEL DUPUIS (PACIFIC NORTHWEST NATIONAL LABORATORY).

          --------------------
          2 ELECTRON INTEGRALS
          --------------------

 DIRECT SCF METHOD SKIPS INTEGRAL STORAGE ON DISK.
 DIRECT TRANSFORMATION SKIPS AO INTEGRAL STORAGE ON DISK.
  ...... END OF TWO-ELECTRON INTEGRALS .....
 STEP CPU TIME =     0.02 TOTAL CPU TIME =          0.3 (      0.0 MIN)
 TOTAL WALL CLOCK TIME=          0.6 SECONDS, CPU UTILIZATION IS    44.26%
 DDI: Creating Array [0] - 8836 x 231 = 2041116 words.
 DDI: Creating Array [1] - 64 x 4851 = 310464 words.
 DDI: Creating Array [2] - 231 x 231 = 53361 words.
 DDI: Creating Array [3] - 4465 x 231 = 1031415 words.

          -----------------
          MCSCF CALCULATION
          -----------------

 ----- NUCLEAR ENERGY ----- =        36.3841197810

     -------------------------------------------------
     GMC-PT/GMC-QDPT or general MCSCF input parameters
     -------------------------------------------------
 # of frozen core orbs. =         5 ->         0
 # of doubly occ. orbs. =         9
 # of active      orbs. =         7
 # of virtual     orbs. =        64
 # of active electrons  =         7
 # of states in CI      =         4
 Highest state in CI    =         4
 kstate =  1 1 1 1
 avecoe =  0.250 0.250 0.250 0.250
 State symmetry           = A           
 Assigned symmetry number = 1

 <<<Act. MO sym.: 1111111

 <<<Division of 1-ext.:  0 0
 <<<Division of 2-ext.:  0 1

 *** Reference space

 Reference type: ORMAS (= Occupation restricted multiple active space)
 # of orbitals          =  7
 # of minimum electrons =  7
 # of maximum electrons =  7
 State symmetry    =    1 (input)
 2*Sz              =    1 (input)
 Spin multiplicity =    2 (input)
 Dimension of reference space =      1225  (from      3432 walks)

 Dimension of reference space =      1225  (from      1225 walks)

 <<<Ionized spaces for Ref-CI:
      0:         1225 /   -1-0:         1960 /  0-1-0:         2891

 EVALUATING EXCHANGE INTEGRALS FOR DIRECT INTEGRAL TRANSFORMATION
 SCHWARZ INEQUALITY OVERHEAD:      4465 INTEGRALS, T=        0.21

     --------------------------------------------
     PARTIAL TWO ELECTRON INTEGRAL TRANSFORMATION
     --------------------------------------------

 NUMBER OF CORE MOLECULAR ORBITALS     =   14
 NUMBER OF OCCUPIED MOLECULAR ORBITALS =   21
 TOTAL NUMBER OF MOLECULAR ORBITALS    =   85
 TOTAL NUMBER OF ATOMIC ORBITALS       =   94
 THRESHOLD FOR KEEPING TRANSFORMED 2E- INTEGRALS = 1.000E-09

 -------------------------------     ------------------------------
 DISTRIBUTED DATA TRANSFORMATION     PROGRAM WRITTEN BY G. FLETCHER
 -------------------------------     ------------------------------

 THE DISTRIBUTED MEMORY REQUIRED FOR THIS STEP IS MEMDDI=         4 MWORDS
 CREATING DISTRIBUTED STORAGE FOR [VIR OCC|VIR OCC] INTEGRALS
 CREATING DISTRIBUTED STORAGE FOR [VIR OCC|OCC OCC] INTEGRALS
 CREATING DISTRIBUTED STORAGE FOR [OCC OCC|OCC OCC] INTEGRALS
 CREATING DISTRIBUTED STORAGE FOR [VIR VIR|OCC OCC] INTEGRALS
 FOR    2 PROCESSORS, THE REPLICATED MEMORY NEEDED IS      615709 WORDS.
 SCHWARZ INEQUALITY OVERHEAD:      4465 INTEGRALS, T=        0.21

      DIRECT 4-INDEX TRANSFORMATION 
      SCHWARZ INEQUALITY TEST SKIPPED       1074 INTEGRAL BLOCKS
 ----- FROZEN CORE ENERGY =     -2258.5575580616
 ... END OF INTEGRAL TRANSFORMATION ...
 CPU     0: STEP CPU TIME=    14.95 TOTAL CPU TIME=         15.2 (      0.3 MIN)
 TOTAL WALL CLOCK TIME=         15.6 SECONDS, CPU UTILIZATION IS    97.44%

     --------------------------------     -----------------------------
     MCHF NEWTON-RAPHSON OPTIMIZATION     CODE WRITTEN BY MICHEL DUPUIS
     --------------------------------     -----------------------------
     PARALLEL VERSION WRITTEN BY G. FLETCHER (ELORET)
     NASA ADVANCED SUPERCOMPUTING DIVISION, AMES RESEARCH CENTER

 NUMBER OF INDEPENDENT ORBITAL ROTATION PARAMETERS =   809
 ..... DONE SOLVING NEWTON-RAPHSON EQUATIONS .....
 CPU     0: STEP CPU TIME=     0.65 TOTAL CPU TIME=         15.9 (      0.3 MIN)
 TOTAL WALL CLOCK TIME=         16.7 SECONDS, CPU UTILIZATION IS    94.92%
 ..... DONE WITH NTN-RPH ORBITAL ROTATIONS ..... 
 CPU     0: STEP CPU TIME=     0.00 TOTAL CPU TIME=         15.9 (      0.3 MIN)
 TOTAL WALL CLOCK TIME=         16.7 SECONDS, CPU UTILIZATION IS    94.86%
 MAXIMUM MEMORY USED BY NTN-RPH CODE WAS    197978 WORDS.

 ITER     TOTAL ENERGY      DEL(E)  LAGRANGIAN ASYMMETRY   SQCDF  MICIT   DAMP
   1    -2235.516974851 -0.516974851  0.001966   58   18 2.556E-05  1   0.0000
   2    -2235.516986541 -0.000011690  0.000189   31   18 1.295E-05  1   0.0000
   3    -2235.516987156 -0.000000615  0.000069   31   18 4.996E-06  1   0.0000
   4    -2235.516987358 -0.000000202  0.000033   31   18 1.904E-06  1   0.0000
   5    -2235.516987433 -0.000000075  0.000018   31   18 7.215E-07  1   0.0000
   6    -2235.516987461 -0.000000028  0.000011   31   18 2.727E-07  1   0.0000
   7    -2235.516987472 -0.000000011  0.000007   31   18 1.029E-07  1   0.0000
   8    -2235.516987476 -0.000000004  0.000004   31   18 3.882E-08  1   0.0000
   9    -2235.516987477 -0.000000002  0.000002   31   18 1.466E-08  1   0.0000
  10    -2235.516987478 -0.000000001  0.000001   31   18 5.537E-09  1   0.0000
  11    -2235.516987478 -0.000000000  0.000001   31   18 2.090E-09  1   0.0000

          --------------------
          LAGRANGIAN CONVERGED
          --------------------

 FINAL MCSCF ENERGY IS    -2235.5169874780 AFTER  11 ITERATIONS

 -MCCI- BASED ON OPTIMIZED ORBITALS
 ----------------------------------

 PLEASE NOTE: IF THE ACTIVE ORBITALS ARE CANONICALIZED BELOW,
 THE FOLLOWING CI EXPANSION COEFFICIENTS AND THE DENSITY DO NOT
 CORRESPOND TO THE PRINTED ORBITALS.  THE PRINTED EXPANSIONS MATCH
 THE ORBITALS USED DURING THE LAST ITERATION.  IF YOU WISH TO SEE
 CI EXPANSIONS BASED ON THE CANONICAL (OR NATURAL) ORBITALS, YOU
 MUST RUN A CI CALCULATION WITH THAT ORBITAL CHOICE READ IN $VEC.

 Averaged energy =   -2235.516987478

 State #    1  Energy =   -2235.693435119  S =  0.500

      Det      Coef    Occupancy (Ignoring core)
      ---      ----    --------- --------- -----
        1    0.976667  11110001110000
      107   -0.073547  11101000111000
      143    0.060800  11011001100100
      179    0.060800  10111001010100
      393    0.059089  10110101010010
      717    0.059089  11010011100001

 State #    2  Energy =   -2235.481661178  S =  0.500

      Det      Coef    Occupancy (Ignoring core)
      ---      ----    --------- --------- -----
        2    0.951816  11101001110000
      106   -0.172519  11110000111000
      110   -0.057397  01111000111000
      156    0.080892  11100011100100
      181   -0.080892  11100101010100
      212    0.064063  11101000110100
      387   -0.077780  11101001010010
      396    0.060966  10101101010010
      702    0.077780  11101001100001
      720    0.060966  11001011100001

 State #    3  Energy =   -2235.446426807  S =  0.500

      Det      Coef    Occupancy (Ignoring core)
      ---      ----    --------- --------- -----
       16   -0.107461  11100011110000
       36    0.868506  11110001101000
       39    0.095391  10111001101000
       52    0.084425  11010011101000
       71   -0.386050  11110001011000
       73    0.095391  11011001011000
      108    0.051196  11011000111000
      142   -0.109704  11101001100100
      249    0.063352  10111001001100

 State #    4  Energy =   -2235.446426807  S =  0.500

      Det      Coef    Occupancy (Ignoring core)
      ---      ----    --------- --------- -----
        6    0.107461  11100101110000
       36    0.386050  11110001101000
       38    0.095391  11011001101000
       71    0.868506  11110001011000
       74   -0.095391  10111001011000
       78   -0.084425  10110101011000
      109    0.051196  10111000111000
      177   -0.109704  11101001010100
      248   -0.063352  11011001001100

 DENSITY MATRIX OVER ACTIVE MO-S

             1           2           3           4           5

    1    1.9718914
    2    0.0000000   1.7203446
    3    0.0000000  -0.0000000   1.7203446
    4   -0.0002702  -0.0000000  -0.0000000   1.2380817
    5    0.0033040   0.0000000  -0.0000000  -0.0077058   0.2905666
    6    0.0000000   0.0008742   0.0000011  -0.0000000   0.0000000
    7    0.0000000  -0.0000011   0.0008742  -0.0000000  -0.0000000

             6           7

    6    0.0293856
    7    0.0000000   0.0293856

 FORMING THE "STANDARD FOCK OPERATOR" IN DIRECT AO INTEGRAL MODE...
 ONLY THE   14 CORE AND   64 VIRTUAL ORBITALS WILL BE CANONICALIZED

          ----------------------
          MCSCF NATURAL ORBITALS
          ----------------------

                      1          2          3          4          5
                 -432.8954   -56.6209   -50.4654   -50.4653   -50.4653
                     A          A          A          A          A   
    1  AS 1  S    0.999999   0.000003   0.000000  -0.000000  -0.000000
    2  AS 1  S    0.000001   1.000103  -0.000025   0.000000  -0.000000
    3  AS 1  S   -0.000004   0.000135   0.000004   0.000000  -0.000000
    4  AS 1  S   -0.000005   0.000143   0.000002   0.000000  -0.000000
    5  AS 1  S    0.000016  -0.000426  -0.000003  -0.000000   0.000000
    6  AS 1  S    0.000005  -0.000140  -0.000002   0.000000  -0.000000
    7  AS 1  X    0.000000   0.000000   0.000001   0.991445  -0.130719
    8  AS 1  Y    0.000000   0.000000   0.000001   0.130719   0.991445
    9  AS 1  Z    0.000000   0.000026   1.000026  -0.000001  -0.000001
   10  AS 1  X    0.000000   0.000000   0.000000  -0.000003   0.000000
   11  AS 1  Y    0.000000  -0.000000  -0.000000  -0.000000  -0.000003
   12  AS 1  Z   -0.000000   0.000002   0.000001   0.000000   0.000000
   13  AS 1  X   -0.000000   0.000000  -0.000000  -0.000088   0.000012
   14  AS 1  Y   -0.000000  -0.000000  -0.000000  -0.000012  -0.000088
   15  AS 1  Z   -0.000000   0.000001  -0.000002   0.000000   0.000000
   16  AS 1  X    0.000000  -0.000000  -0.000000  -0.000496   0.000065
   17  AS 1  Y   -0.000000   0.000000  -0.000000  -0.000065  -0.000496
   18  AS 1  Z    0.000000  -0.000001  -0.000447   0.000000   0.000000
   19  AS 1  X    0.000000   0.000000  -0.000000  -0.000089   0.000012
   20  AS 1  Y   -0.000000   0.000000  -0.000000  -0.000012  -0.000089
   21  AS 1  Z    0.000000  -0.000001  -0.000069   0.000000   0.000000
   22  AS 1 XX    0.000000  -0.000001  -0.000001   0.000002  -0.000000
   23  AS 1 YY    0.000000  -0.000001  -0.000001  -0.000002   0.000000
   24  AS 1 ZZ   -0.000000   0.000001   0.000002  -0.000000  -0.000000
   25  AS 1 XY   -0.000000   0.000000  -0.000000  -0.000000  -0.000002
   26  AS 1 XZ    0.000000   0.000000  -0.000000   0.000002  -0.000000
   27  AS 1 YZ    0.000000  -0.000000  -0.000000   0.000000   0.000002
   28  AS 1 XX    0.000000  -0.000002   0.000000  -0.000055   0.000007
   29  AS 1 YY    0.000000  -0.000002   0.000000   0.000055  -0.000007
   30  AS 1 ZZ   -0.000000   0.000004  -0.000001  -0.000000   0.000000
   31  AS 1 XY    0.000000   0.000000   0.000000   0.000008   0.000064
   32  AS 1 XZ    0.000000   0.000000   0.000000  -0.000002   0.000000
   33  AS 1 YZ    0.000000  -0.000000  -0.000000  -0.000000  -0.000002
   34  AS 1 XX    0.000000  -0.000002  -0.000000  -0.000016   0.000002
   35  AS 1 YY    0.000000  -0.000002  -0.000000   0.000016  -0.000002
   36  AS 1 ZZ   -0.000000   0.000004   0.000000  -0.000000   0.000000
   37  AS 1 XY    0.000000   0.000000   0.000000   0.000002   0.000018
   38  AS 1 XZ    0.000000  -0.000000  -0.000000   0.000000  -0.000000
   39  AS 1 YZ    0.000000   0.000000   0.000000   0.000000   0.000000
   40  AS 1 XXX   0.000000  -0.000006   0.000000  -0.000013   0.000002
   41  AS 1 YYY   0.000000  -0.000000  -0.000000  -0.000002  -0.000013
   42  AS 1 ZZZ  -0.000000   0.000000  -0.000000  -0.000000  -0.000000
   43  AS 1 XXY  -0.000000   0.000000   0.000000  -0.000001  -0.000006
   44  AS 1 XXZ   0.000000  -0.000000   0.000000  -0.000000   0.000000
   45  AS 1 YYX  -0.000000   0.000008  -0.000000  -0.000006   0.000001
   46  AS 1 YYZ   0.000000  -0.000000   0.000000   0.000000  -0.000000
   47  AS 1 ZZX   0.000000  -0.000000   0.000000   0.000023  -0.000003
   48  AS 1 ZZY   0.000000   0.000000  -0.000000   0.000003   0.000023
   49  AS 1 XYZ   0.000000  -0.000000  -0.000000   0.000000   0.000001
   50  H  2  S   -0.000000   0.000006  -0.000000   0.000005  -0.000013
   51  H  2  S   -0.000000   0.000011  -0.000001  -0.000027   0.000065
   52  H  2  S   -0.000001   0.000029   0.000000  -0.000018   0.000044
   53  H  2  X   -0.000000   0.000002   0.000000  -0.000004   0.000008
   54  H  2  Y    0.000000  -0.000003  -0.000000   0.000005  -0.000014
   55  H  2  Z    0.000000  -0.000000   0.000001   0.000000  -0.000000
   56  H  2  X   -0.000000   0.000004  -0.000000  -0.000015   0.000033
   57  H  2  Y    0.000000  -0.000008   0.000000   0.000023  -0.000058
   58  H  2  Z    0.000000  -0.000000  -0.000005   0.000000  -0.000000
   59  H  2 XX    0.000000  -0.000001   0.000000   0.000004  -0.000003
   60  H  2 YY   -0.000000   0.000005   0.000000  -0.000013   0.000023
   61  H  2 ZZ    0.000000  -0.000004  -0.000000   0.000008  -0.000020
   62  H  2 XY    0.000000  -0.000006  -0.000000   0.000010  -0.000029
   63  H  2 XZ    0.000000  -0.000000   0.000003   0.000000  -0.000000
   64  H  2 YZ   -0.000000   0.000000  -0.000005  -0.000000   0.000000
   65  H  3  S   -0.000000   0.000006  -0.000000   0.000009   0.000011
   66  H  3  S   -0.000000   0.000011  -0.000001  -0.000043  -0.000056
   67  H  3  S   -0.000001   0.000029   0.000000  -0.000029  -0.000037
   68  H  3  X   -0.000000   0.000002   0.000000  -0.000006  -0.000006
   69  H  3  Y   -0.000000   0.000003   0.000000  -0.000009  -0.000012
   70  H  3  Z    0.000000  -0.000000   0.000001   0.000000   0.000000
   71  H  3  X   -0.000000   0.000004  -0.000000  -0.000023  -0.000028
   72  H  3  Y   -0.000000   0.000008  -0.000000  -0.000037  -0.000050
   73  H  3  Z    0.000000  -0.000000  -0.000005   0.000000   0.000000
   74  H  3 XX    0.000000  -0.000001   0.000000   0.000005   0.000002
   75  H  3 YY   -0.000000   0.000005   0.000000  -0.000018  -0.000019
   76  H  3 ZZ    0.000000  -0.000004  -0.000000   0.000013   0.000017
   77  H  3 XY   -0.000000   0.000006   0.000000  -0.000017  -0.000026
   78  H  3 XZ    0.000000  -0.000000   0.000003   0.000000   0.000000
   79  H  3 YZ    0.000000  -0.000000   0.000005   0.000000   0.000000
   80  H  4  S   -0.000000   0.000006  -0.000000  -0.000014   0.000002
   81  H  4  S   -0.000000   0.000011  -0.000001   0.000069  -0.000009
   82  H  4  S   -0.000001   0.000029   0.000000   0.000047  -0.000006
   83  H  4  X    0.000000  -0.000004  -0.000000  -0.000017   0.000002
   84  H  4  Y    0.000000   0.000000  -0.000000  -0.000000  -0.000001
   85  H  4  Z    0.000000  -0.000000   0.000001  -0.000000   0.000000
   86  H  4  X    0.000000  -0.000009   0.000000  -0.000071   0.000009
   87  H  4  Y    0.000000  -0.000000  -0.000000  -0.000000  -0.000002
   88  H  4  Z    0.000000  -0.000000  -0.000005  -0.000000   0.000000
   89  H  4 XX   -0.000000   0.000008   0.000000   0.000042  -0.000005
   90  H  4 YY    0.000000  -0.000004  -0.000000  -0.000020   0.000003
   91  H  4 ZZ    0.000000  -0.000004  -0.000000  -0.000022   0.000003
   92  H  4 XY    0.000000   0.000000   0.000000  -0.000001  -0.000004
   93  H  4 XZ   -0.000000   0.000000  -0.000006   0.000000  -0.000000
   94  H  4 YZ    0.000000   0.000000   0.000000  -0.000000  -0.000000

                      6          7          8          9         10
                   -8.3450    -6.1998    -6.1998    -6.1964    -2.4338
                     A          A          A          A          A   
    1  AS 1  S   -0.000085  -0.000000   0.000000  -0.000005   0.000000
    2  AS 1  S   -0.000609  -0.000000   0.000000  -0.000033   0.000000
    3  AS 1  S    0.975257  -0.000000   0.000000  -0.000276   0.000000
    4  AS 1  S   -0.001924   0.000000   0.000000  -0.000109  -0.000000
    5  AS 1  S    0.036269   0.000000  -0.000000   0.000078   0.000000
    6  AS 1  S    0.004132   0.000000  -0.000000   0.000035   0.000000
    7  AS 1  X   -0.000000  -0.000075   0.000074  -0.000000   0.000159
    8  AS 1  Y   -0.000000  -0.000074  -0.000075  -0.000000  -0.000146
    9  AS 1  Z   -0.000003  -0.000000   0.000000   0.000031   0.000000
   10  AS 1  X   -0.000000   0.690468  -0.687528  -0.000000   0.000777
   11  AS 1  Y   -0.000000   0.687528   0.690468  -0.000000  -0.000713
   12  AS 1  Z    0.000147   0.000000   0.000000   0.975679  -0.000000
   13  AS 1  X   -0.000000  -0.000708   0.000705  -0.000000   0.003435
   14  AS 1  Y   -0.000000  -0.000705  -0.000708   0.000000  -0.003155
   15  AS 1  Z   -0.000019  -0.000000   0.000000   0.000430  -0.000000
   16  AS 1  X    0.000000   0.033869  -0.033724   0.000000  -0.001393
   17  AS 1  Y   -0.000000   0.033724   0.033869  -0.000000   0.001279
   18  AS 1  Z    0.000029   0.000000   0.000000   0.046644   0.000000
   19  AS 1  X   -0.000000   0.001465  -0.001459  -0.000000  -0.001886
   20  AS 1  Y    0.000000   0.001459   0.001465  -0.000000   0.001732
   21  AS 1  Z    0.000011   0.000000   0.000000   0.001652   0.000000
   22  AS 1 XX    0.000324   0.000431  -0.000429  -0.000043   0.616589
   23  AS 1 YY    0.000324  -0.000431   0.000429  -0.000043  -0.616589
   24  AS 1 ZZ   -0.000647   0.000000   0.000000   0.000086  -0.000000
   25  AS 1 XY   -0.000000  -0.000495  -0.000498   0.000000   0.653866
   26  AS 1 XZ   -0.000000   0.000060  -0.000060   0.000000   0.004993
   27  AS 1 YZ   -0.000000   0.000060   0.000060   0.000000  -0.004586
   28  AS 1 XX    0.000051  -0.000234   0.000233  -0.000007   0.053986
   29  AS 1 YY    0.000051   0.000234  -0.000233  -0.000007  -0.053986
   30  AS 1 ZZ   -0.000101  -0.000000  -0.000000   0.000014  -0.000000
   31  AS 1 XY   -0.000000   0.000270   0.000271   0.000000   0.057249
   32  AS 1 XZ    0.000000   0.000005  -0.000005   0.000000   0.000435
   33  AS 1 YZ   -0.000000   0.000005   0.000005   0.000000  -0.000399
   34  AS 1 XX   -0.000015  -0.000152   0.000151   0.000001   0.000333
   35  AS 1 YY   -0.000015   0.000152  -0.000151   0.000001  -0.000333
   36  AS 1 ZZ    0.000031   0.000000  -0.000000  -0.000002  -0.000000
   37  AS 1 XY   -0.000000   0.000174   0.000175   0.000000   0.000354
   38  AS 1 XZ   -0.000000  -0.000008   0.000008  -0.000000   0.000016
   39  AS 1 YZ    0.000000  -0.000008  -0.000008   0.000000  -0.000014
   40  AS 1 XXX   0.000049   0.000038  -0.000038  -0.000004   0.000324
   41  AS 1 YYY   0.000000   0.000038   0.000038   0.000000  -0.000298
   42  AS 1 ZZZ  -0.000001  -0.000000  -0.000000  -0.000215  -0.000000
   43  AS 1 XXY  -0.000000   0.000017   0.000017   0.000000  -0.000133
   44  AS 1 XXZ   0.000000  -0.000002   0.000002   0.000144   0.000039
   45  AS 1 YYX  -0.000066   0.000017  -0.000017   0.000005   0.000145
   46  AS 1 YYZ   0.000000   0.000002  -0.000002   0.000144  -0.000039
   47  AS 1 ZZX  -0.000000  -0.000068   0.000067   0.000000  -0.000580
   48  AS 1 ZZY   0.000000  -0.000067  -0.000068  -0.000000   0.000533
   49  AS 1 XYZ  -0.000000   0.000002   0.000002  -0.000000   0.000042
   50  H  2  S    0.000002   0.000110   0.000415   0.000001  -0.005280
   51  H  2  S    0.000333   0.000511   0.001925   0.000019  -0.002541
   52  H  2  S   -0.000677  -0.000179  -0.000673  -0.000009  -0.001638
   53  H  2  X   -0.000004   0.000025   0.000012   0.000000  -0.000888
   54  H  2  Y    0.000006   0.000004  -0.000034  -0.000000   0.001268
   55  H  2  Z    0.000000  -0.000000  -0.000001   0.000011   0.000010
   56  H  2  X    0.000006   0.000154   0.000218   0.000004  -0.000199
   57  H  2  Y   -0.000010  -0.000060  -0.000433  -0.000008  -0.000263
   58  H  2  Z    0.000000  -0.000000  -0.000002   0.000124   0.000016
   59  H  2 XX   -0.000004  -0.000037  -0.000036  -0.000001   0.000079
   60  H  2 YY    0.000025   0.000061   0.000125   0.000001  -0.000539
   61  H  2 ZZ   -0.000021  -0.000024  -0.000089  -0.000000   0.000460
   62  H  2 XY   -0.000029  -0.000029  -0.000180  -0.000002   0.000805
   63  H  2 XZ   -0.000000   0.000000  -0.000001  -0.000018   0.000010
   64  H  2 YZ    0.000000   0.000001   0.000002   0.000030  -0.000013
   65  H  3  S    0.000002  -0.000414  -0.000112   0.000001   0.001204
   66  H  3  S    0.000333  -0.001923  -0.000520   0.000019   0.000579
   67  H  3  S   -0.000677   0.000672   0.000182  -0.000009   0.000373
   68  H  3  X   -0.000004  -0.000012  -0.000025   0.000000  -0.000205
   69  H  3  Y   -0.000006  -0.000034   0.000003   0.000000   0.000524
   70  H  3  Z    0.000000   0.000001   0.000000   0.000011  -0.000002
   71  H  3  X    0.000006  -0.000218  -0.000155   0.000004  -0.000871
   72  H  3  Y    0.000010  -0.000433  -0.000061   0.000008   0.000469
   73  H  3  Z    0.000000   0.000002   0.000000   0.000124  -0.000004
   74  H  3 XX   -0.000004   0.000036   0.000037  -0.000001  -0.000262
   75  H  3 YY    0.000025  -0.000125  -0.000061   0.000001   0.000367
   76  H  3 ZZ   -0.000021   0.000089   0.000024  -0.000000  -0.000105
   77  H  3 XY    0.000029  -0.000180  -0.000030   0.000002   0.000020
   78  H  3 XZ   -0.000000   0.000001  -0.000000  -0.000018   0.000005
   79  H  3 YZ   -0.000000   0.000002   0.000001  -0.000030  -0.000007
   80  H  4  S    0.000002   0.000304  -0.000303   0.000001   0.004076
   81  H  4  S    0.000333   0.001411  -0.001405   0.000019   0.001962
   82  H  4  S   -0.000677  -0.000493   0.000491  -0.000009   0.001264
   83  H  4  X    0.000007  -0.000026   0.000026  -0.000000  -0.001190
   84  H  4  Y   -0.000000   0.000017   0.000017   0.000000   0.000305
   85  H  4  Z    0.000000  -0.000001   0.000001   0.000011  -0.000007
   86  H  4  X   -0.000011  -0.000355   0.000354  -0.000009   0.000099
   87  H  4  Y    0.000000   0.000076   0.000076  -0.000000   0.000686
   88  H  4  Z    0.000000  -0.000001   0.000001   0.000124  -0.000013
   89  H  4 XX    0.000040   0.000161  -0.000161   0.000002   0.000763
   90  H  4 YY   -0.000018  -0.000096   0.000096  -0.000002  -0.000408
   91  H  4 ZZ   -0.000021  -0.000065   0.000065  -0.000000  -0.000355
   92  H  4 XY   -0.000000   0.000025   0.000025  -0.000000  -0.000211
   93  H  4 XZ    0.000000   0.000002  -0.000002   0.000035   0.000013
   94  H  4 YZ   -0.000000   0.000000   0.000000   0.000000  -0.000005

                     11         12         13         14         15
                   -2.4338    -2.4296    -2.4287    -2.4287     1.9719
                     A          A          A          A          A   
    1  AS 1  S   -0.000000  -0.000096  -0.000000   0.000000   0.000444
    2  AS 1  S   -0.000000  -0.000644  -0.000000  -0.000000   0.002665
    3  AS 1  S    0.000000  -0.001510  -0.000000  -0.000000   0.004373
    4  AS 1  S   -0.000000  -0.003276  -0.000000  -0.000000   0.556878
    5  AS 1  S   -0.000000   0.000596   0.000000   0.000000   0.235472
    6  AS 1  S    0.000000   0.003472  -0.000000  -0.000000   0.130905
    7  AS 1  X   -0.000146  -0.000000  -0.000008   0.000006   0.000000
    8  AS 1  Y   -0.000159  -0.000000  -0.000006  -0.000008   0.000000
    9  AS 1  Z   -0.000000  -0.000008   0.000000   0.000000  -0.000017
   10  AS 1  X   -0.000713  -0.000000  -0.000134   0.000108  -0.000000
   11  AS 1  Y   -0.000777  -0.000000  -0.000108  -0.000134  -0.000000
   12  AS 1  Z   -0.000000  -0.000141  -0.000000   0.000000  -0.000269
   13  AS 1  X   -0.003155   0.000000  -0.000040   0.000032   0.000000
   14  AS 1  Y   -0.003435   0.000000  -0.000032  -0.000040   0.000000
   15  AS 1  Z   -0.000000  -0.000142  -0.000000   0.000000  -0.000014
   16  AS 1  X    0.001279   0.000000   0.000074  -0.000060   0.000000
   17  AS 1  Y    0.001393  -0.000000   0.000060   0.000074  -0.000000
   18  AS 1  Z    0.000000   0.000038  -0.000000  -0.000000   0.000121
   19  AS 1  X    0.001732  -0.000000  -0.000019   0.000015   0.000000
   20  AS 1  Y    0.001886   0.000000  -0.000015  -0.000019  -0.000000
   21  AS 1  Z    0.000000  -0.000025   0.000000  -0.000000  -0.000420
   22  AS 1 XX   -0.566264  -0.484045  -0.004579   0.003704  -0.014321
   23  AS 1 YY    0.566264  -0.484045   0.004579  -0.003704  -0.014321
   24  AS 1 ZZ   -0.000000   0.968089  -0.000000  -0.000000   0.028643
   25  AS 1 XY    0.711976   0.000000   0.004277   0.005288  -0.000000
   26  AS 1 XZ   -0.004586   0.000000   0.752919  -0.608954  -0.000000
   27  AS 1 YZ   -0.004993   0.000000   0.608954   0.752919  -0.000000
   28  AS 1 XX   -0.049579  -0.041111  -0.000395   0.000319   0.008453
   29  AS 1 YY    0.049579  -0.041111   0.000395  -0.000319   0.008453
   30  AS 1 ZZ   -0.000000   0.082223  -0.000000  -0.000000  -0.016905
   31  AS 1 XY    0.062337   0.000000   0.000369   0.000456   0.000000
   32  AS 1 XZ   -0.000399   0.000000   0.063921  -0.051698  -0.000000
   33  AS 1 YZ   -0.000435   0.000000   0.051698   0.063921  -0.000000
   34  AS 1 XX   -0.000306  -0.000672  -0.000034   0.000027   0.004365
   35  AS 1 YY    0.000306  -0.000672   0.000034  -0.000027   0.004365
   36  AS 1 ZZ   -0.000000   0.001344   0.000000   0.000000  -0.008730
   37  AS 1 XY    0.000385  -0.000000   0.000032   0.000039  -0.000000
   38  AS 1 XZ   -0.000014   0.000000   0.000747  -0.000604  -0.000000
   39  AS 1 YZ   -0.000016   0.000000   0.000604   0.000747  -0.000000
   40  AS 1 XXX  -0.000298  -0.001017  -0.000026   0.000021   0.013466
   41  AS 1 YYY  -0.000324  -0.000000  -0.000021  -0.000026   0.000000
   42  AS 1 ZZZ  -0.000000   0.000060  -0.000000   0.000000  -0.000161
   43  AS 1 XXY  -0.000145  -0.000000  -0.000009  -0.000011  -0.000000
   44  AS 1 XXZ  -0.000036  -0.000040   0.000184  -0.000148   0.000108
   45  AS 1 YYX  -0.000133   0.001364  -0.000011   0.000009  -0.018067
   46  AS 1 YYZ   0.000036  -0.000040  -0.000184   0.000148   0.000108
   47  AS 1 ZZX   0.000533  -0.000000   0.000046  -0.000037  -0.000000
   48  AS 1 ZZY   0.000580   0.000000   0.000037   0.000046  -0.000000
   49  AS 1 XYZ   0.000045  -0.000000  -0.000171  -0.000212   0.000000
   50  H  2  S   -0.001658  -0.002814   0.000008   0.000051   0.074519
   51  H  2  S   -0.000798  -0.000902   0.000019   0.000122   0.107605
   52  H  2  S   -0.000514  -0.000355   0.000006   0.000038   0.010131
   53  H  2  X    0.000130  -0.000444   0.000007   0.000008   0.003493
   54  H  2  Y    0.000634   0.000769   0.000001  -0.000016  -0.006051
   55  H  2  Z    0.000003   0.000011   0.000069   0.000438  -0.000049
   56  H  2  X    0.000858   0.000064   0.000019   0.000020   0.006363
   57  H  2  Y    0.000449  -0.000112   0.000003  -0.000039  -0.011021
   58  H  2  Z    0.000005   0.000020   0.000179   0.001132  -0.000086
   59  H  2 XX    0.000270  -0.000016   0.000006   0.000002   0.000015
   60  H  2 YY   -0.000415  -0.000386  -0.000004   0.000010   0.001571
   61  H  2 ZZ    0.000144   0.000401  -0.000002  -0.000012  -0.001586
   62  H  2 XY    0.000089   0.000370  -0.000005  -0.000006  -0.001556
   63  H  2 XZ   -0.000004   0.000008   0.000121   0.000193  -0.000012
   64  H  2 YZ   -0.000008  -0.000014  -0.000006  -0.000367   0.000020
   65  H  3  S    0.005402  -0.002814  -0.000048  -0.000018   0.074519
   66  H  3  S    0.002600  -0.000902  -0.000115  -0.000044   0.107605
   67  H  3  S    0.001675  -0.000355  -0.000036  -0.000014   0.010131
   68  H  3  X    0.000874  -0.000444  -0.000006  -0.000009   0.003493
   69  H  3  Y    0.001317  -0.000769  -0.000016  -0.000002   0.006051
   70  H  3  Z   -0.000010   0.000011  -0.000414  -0.000159  -0.000049
   71  H  3  X    0.000125   0.000064  -0.000015  -0.000022   0.006363
   72  H  3  Y   -0.000224   0.000112  -0.000039  -0.000006   0.011021
   73  H  3  Z   -0.000017   0.000020  -0.001070  -0.000411  -0.000086
   74  H  3 XX   -0.000101  -0.000016  -0.000000  -0.000006   0.000015
   75  H  3 YY    0.000572  -0.000386  -0.000011   0.000002   0.001571
   76  H  3 ZZ   -0.000471   0.000401   0.000011   0.000004  -0.001586
   77  H  3 XY    0.000809  -0.000370  -0.000005  -0.000006   0.001556
   78  H  3 XZ   -0.000010   0.000008  -0.000164  -0.000159  -0.000012
   79  H  3 YZ   -0.000014   0.000014  -0.000358  -0.000082  -0.000020
   80  H  4  S   -0.003744  -0.002814   0.000040  -0.000032   0.074519
   81  H  4  S   -0.001802  -0.000902   0.000096  -0.000078   0.107605
   82  H  4  S   -0.001161  -0.000355   0.000030  -0.000024   0.010131
   83  H  4  X    0.001093   0.000888  -0.000014   0.000011  -0.006987
   84  H  4  Y    0.000332  -0.000000   0.000004   0.000005  -0.000000
   85  H  4  Z    0.000007   0.000011   0.000345  -0.000279  -0.000049
   86  H  4  X   -0.000091  -0.000129  -0.000035   0.000028  -0.012726
   87  H  4  Y    0.000747   0.000000   0.000011   0.000014  -0.000000
   88  H  4  Z    0.000012   0.000020   0.000891  -0.000721  -0.000086
   89  H  4 XX   -0.000700  -0.000570   0.000010  -0.000008   0.002349
   90  H  4 YY    0.000374   0.000169  -0.000001   0.000001  -0.000763
   91  H  4 ZZ    0.000326   0.000401  -0.000009   0.000007  -0.001586
   92  H  4 XY   -0.000230  -0.000000  -0.000005  -0.000006   0.000000
   93  H  4 XZ   -0.000012  -0.000017  -0.000327   0.000264   0.000024
   94  H  4 YZ   -0.000006  -0.000000   0.000065   0.000080   0.000000

                     16         17         18         19         20
                    1.7203     1.7203     1.2381     0.2905     0.0294
                     A          A          A          A          A   
    1  AS 1  S    0.000000   0.000000  -0.000017   0.001257   0.000000
    2  AS 1  S    0.000000   0.000000  -0.000126   0.009555   0.000000
    3  AS 1  S    0.000000   0.000000  -0.000766   0.063200   0.000000
    4  AS 1  S   -0.000000   0.000000  -0.005992   0.491256   0.000000
    5  AS 1  S   -0.000000  -0.000000  -0.002933   0.249900  -0.000000
    6  AS 1  S   -0.000000  -0.000000  -0.005138   0.661290  -0.000000
    7  AS 1  X   -0.003806  -0.001232   0.000000  -0.000000   0.006612
    8  AS 1  Y    0.001232  -0.003806  -0.000000   0.000000   0.012606
    9  AS 1  Z    0.000000  -0.000000  -0.000249   0.000068  -0.000000
   10  AS 1  X   -0.050693  -0.016408   0.000000  -0.000000   0.089271
   11  AS 1  Y    0.016408  -0.050693  -0.000000  -0.000000   0.170202
   12  AS 1  Z    0.000000  -0.000000  -0.001193   0.000929   0.000000
   13  AS 1  X    0.346486   0.112150   0.000000   0.000000   0.455320
   14  AS 1  Y   -0.112150   0.346486  -0.000000   0.000000   0.868099
   15  AS 1  Z    0.000000   0.000000   0.613134   0.008925   0.000000
   16  AS 1  X    0.158968   0.051454  -0.000000   0.000000   0.122584
   17  AS 1  Y   -0.051454   0.158968  -0.000000   0.000000   0.233715
   18  AS 1  Z   -0.000000  -0.000000   0.226733   0.002704  -0.000000
   19  AS 1  X    0.062726   0.020303   0.000000  -0.000000   0.098230
   20  AS 1  Y   -0.020303   0.062726  -0.000000  -0.000000   0.187282
   21  AS 1  Z   -0.000000   0.000000   0.294848   0.007038  -0.000000
   22  AS 1 XX   -0.051039  -0.016520  -0.000196   0.057911   0.048368
   23  AS 1 YY    0.051039   0.016520  -0.000196   0.057911  -0.048368
   24  AS 1 ZZ   -0.000000  -0.000000   0.000392  -0.115821   0.000000
   25  AS 1 XY   -0.019076   0.058934   0.000000   0.000000  -0.106483
   26  AS 1 XZ   -0.000935  -0.000303   0.000000  -0.000000   0.001882
   27  AS 1 YZ    0.000303  -0.000935   0.000000  -0.000000   0.003589
   28  AS 1 XX    0.026951   0.008723  -0.000070  -0.047913  -0.028086
   29  AS 1 YY   -0.026951  -0.008723  -0.000070  -0.047913   0.028086
   30  AS 1 ZZ    0.000000  -0.000000   0.000139   0.095827  -0.000000
   31  AS 1 XY    0.010073  -0.031120   0.000000  -0.000000   0.061831
   32  AS 1 XZ    0.000388   0.000126  -0.000000  -0.000000  -0.002112
   33  AS 1 YZ   -0.000126   0.000388  -0.000000   0.000000  -0.004027
   34  AS 1 XX    0.020194   0.006536  -0.000434  -0.092522   0.019296
   35  AS 1 YY   -0.020194  -0.006536  -0.000434  -0.092522  -0.019296
   36  AS 1 ZZ    0.000000   0.000000   0.000868   0.185045   0.000000
   37  AS 1 XY    0.007547  -0.023318   0.000000   0.000000  -0.042480
   38  AS 1 XZ    0.000275   0.000089   0.000000   0.000000  -0.002085
   39  AS 1 YZ   -0.000089   0.000275  -0.000000  -0.000000  -0.003975
   40  AS 1 XXX   0.007440   0.002408   0.000344  -0.044021  -0.002903
   41  AS 1 YYY  -0.002408   0.007440   0.000000   0.000000  -0.005534
   42  AS 1 ZZZ  -0.000000   0.000000  -0.014270   0.001033   0.000000
   43  AS 1 XXY  -0.001077   0.003327  -0.000000  -0.000000  -0.002475
   44  AS 1 XXZ   0.000197   0.000064   0.009573  -0.000693  -0.000280
   45  AS 1 YYX   0.003327   0.001077  -0.000462   0.059061  -0.001298
   46  AS 1 YYZ  -0.000197  -0.000064   0.009573  -0.000693   0.000280
   47  AS 1 ZZX  -0.013309  -0.004308  -0.000000   0.000000   0.005193
   48  AS 1 ZZY   0.004308  -0.013309   0.000000  -0.000000   0.009900
   49  AS 1 XYZ   0.000074  -0.000227   0.000000   0.000000   0.000616
   50  H  2  S   -0.120561   0.108800   0.001780  -0.139349  -0.142576
   51  H  2  S   -0.211281   0.190668   0.003774  -0.325778  -0.408750
   52  H  2  S   -0.060163   0.054294   0.001734  -0.302601  -0.037291
   53  H  2  X   -0.003127   0.005093   0.000040   0.000586   0.002346
   54  H  2  Y    0.008025  -0.005930  -0.000069  -0.001015   0.008036
   55  H  2  Z    0.000060  -0.000054   0.004525   0.000064  -0.000127
   56  H  2  X   -0.006798   0.012785   0.000082  -0.000321  -0.007852
   57  H  2  Y    0.019413  -0.013680  -0.000142   0.000556   0.077988
   58  H  2  Z    0.000123  -0.000111   0.023135  -0.000102  -0.000475
   59  H  2 XX    0.001308   0.000650   0.000017  -0.000468   0.004189
   60  H  2 YY   -0.002962   0.000843   0.000042  -0.000020  -0.008444
   61  H  2 ZZ    0.001654  -0.001493  -0.000059   0.000488   0.004256
   62  H  2 XY    0.001843  -0.002883  -0.000025  -0.000448   0.002264
   63  H  2 XZ    0.000020  -0.000018   0.001328  -0.000004  -0.000157
   64  H  2 YZ   -0.000035   0.000031  -0.002300   0.000007   0.000022
   65  H  3  S   -0.033943  -0.158809   0.001780  -0.139349   0.266432
   66  H  3  S   -0.059483  -0.278309   0.003774  -0.325778   0.763834
   67  H  3  S   -0.016938  -0.079250   0.001734  -0.302601   0.069686
   68  H  3  X    0.000451  -0.005959   0.000040   0.000586   0.005155
   69  H  3  Y   -0.003028  -0.009508   0.000069   0.001015   0.009510
   70  H  3  Z    0.000017   0.000079   0.004525   0.000064   0.000238
   71  H  3  X    0.001983  -0.014344   0.000082  -0.000321   0.065436
   72  H  3  Y   -0.007715  -0.022461   0.000142  -0.000556   0.116427
   73  H  3  Z    0.000035   0.000163   0.023135  -0.000102   0.000888
   74  H  3 XX    0.001441   0.000240   0.000017  -0.000468  -0.000747
   75  H  3 YY   -0.001906  -0.002419   0.000042  -0.000020   0.008700
   76  H  3 ZZ    0.000466   0.002179  -0.000059   0.000488  -0.007953
   77  H  3 XY    0.000196  -0.003416   0.000025   0.000448   0.008950
   78  H  3 XZ    0.000005   0.000026   0.001328  -0.000004   0.000096
   79  H  3 YZ    0.000010   0.000046   0.002300  -0.000007   0.000154
   80  H  4  S    0.154504   0.050009   0.001780  -0.139349  -0.123857
   81  H  4  S    0.270764   0.087640   0.003774  -0.325778  -0.355084
   82  H  4  S    0.077101   0.024956   0.001734  -0.302601  -0.032395
   83  H  4  X   -0.010910  -0.003531  -0.000079  -0.001172   0.005027
   84  H  4  Y   -0.000600   0.001852   0.000000   0.000000   0.006340
   85  H  4  Z   -0.000077  -0.000025   0.004525   0.000064  -0.000111
   86  H  4  X   -0.025902  -0.008384  -0.000164   0.000642   0.062082
   87  H  4  Y   -0.001755   0.005423  -0.000000  -0.000000   0.033738
   88  H  4  Z   -0.000158  -0.000051   0.023135  -0.000102  -0.000413
   89  H  4 XX    0.004199   0.001359   0.000055   0.000203  -0.006067
   90  H  4 YY   -0.002079  -0.000673   0.000004  -0.000692   0.002370
   91  H  4 ZZ   -0.002120  -0.000686  -0.000059   0.000488   0.003697
   92  H  4 XY    0.000558  -0.001723   0.000000   0.000000  -0.005433
   93  H  4 XZ    0.000051   0.000017  -0.002656   0.000008   0.000084
   94  H  4 YZ    0.000000  -0.000000  -0.000000  -0.000000  -0.000131

                     21
                    0.0294
                     A   
    1  AS 1  S    0.000000
    2  AS 1  S    0.000000
    3  AS 1  S    0.000000
    4  AS 1  S    0.000000
    5  AS 1  S   -0.000000
    6  AS 1  S   -0.000000
    7  AS 1  X    0.012606
    8  AS 1  Y   -0.006612
    9  AS 1  Z   -0.000000
   10  AS 1  X    0.170202
   11  AS 1  Y   -0.089271
   12  AS 1  Z   -0.000000
   13  AS 1  X    0.868099
   14  AS 1  Y   -0.455320
   15  AS 1  Z   -0.000000
   16  AS 1  X    0.233715
   17  AS 1  Y   -0.122584
   18  AS 1  Z   -0.000000
   19  AS 1  X    0.187282
   20  AS 1  Y   -0.098230
   21  AS 1  Z    0.000000
   22  AS 1 XX    0.092217
   23  AS 1 YY   -0.092217
   24  AS 1 ZZ    0.000000
   25  AS 1 XY    0.055851
   26  AS 1 XZ    0.003589
   27  AS 1 YZ   -0.001882
   28  AS 1 XX   -0.053548
   29  AS 1 YY    0.053548
   30  AS 1 ZZ    0.000000
   31  AS 1 XY   -0.032431
   32  AS 1 XZ   -0.004027
   33  AS 1 YZ    0.002112
   34  AS 1 XX    0.036788
   35  AS 1 YY   -0.036788
   36  AS 1 ZZ   -0.000000
   37  AS 1 XY    0.022281
   38  AS 1 XZ   -0.003975
   39  AS 1 YZ    0.002085
   40  AS 1 XXX  -0.005534
   41  AS 1 YYY   0.002903
   42  AS 1 ZZZ   0.000000
   43  AS 1 XXY   0.001298
   44  AS 1 XXZ  -0.000533
   45  AS 1 YYX  -0.002475
   46  AS 1 YYZ   0.000533
   47  AS 1 ZZX   0.009900
   48  AS 1 ZZY  -0.005193
   49  AS 1 XYZ  -0.000323
   50  H  2  S    0.225333
   51  H  2  S    0.646008
   52  H  2  S    0.058937
   53  H  2  X    0.007888
   54  H  2  Y   -0.006006
   55  H  2  Z    0.000201
   56  H  2  X    0.074115
   57  H  2  Y   -0.087630
   58  H  2  Z    0.000751
   59  H  2 XX    0.001986
   60  H  2 YY    0.004740
   61  H  2 ZZ   -0.006726
   62  H  2 XY   -0.009315
   63  H  2 XZ    0.000008
   64  H  2 YZ   -0.000173
   65  H  3  S    0.010807
   66  H  3  S    0.030984
   67  H  3  S    0.002827
   68  H  3  X    0.006414
   69  H  3  Y   -0.003197
   70  H  3  Z    0.000010
   71  H  3  X    0.035675
   72  H  3  Y   -0.014342
   73  H  3  Z    0.000036
   74  H  3 XX    0.004575
   75  H  3 YY   -0.004252
   76  H  3 ZZ   -0.000323
   77  H  3 XY    0.003433
   78  H  3 XZ   -0.000125
   79  H  3 YZ    0.000080
   80  H  4  S   -0.236141
   81  H  4  S   -0.676992
   82  H  4  S   -0.061763
   83  H  4  X    0.009584
   84  H  4  Y   -0.003325
   85  H  4  Z   -0.000211
   86  H  4  X    0.118364
   87  H  4  Y   -0.017696
   88  H  4  Z   -0.000787
   89  H  4 XX   -0.011567
   90  H  4 YY    0.004518
   91  H  4 ZZ    0.007049
   92  H  4 XY    0.002850
   93  H  4 XZ    0.000161
   94  H  4 YZ    0.000069

          ------------------------
          MCSCF OPTIMIZED ORBITALS
          ------------------------

                      1          2          3          4          5
                 -432.8954   -56.6209   -50.4654   -50.4653   -50.4653
                     A          A          A          A          A   
    1  AS 1  S    0.999999   0.000003   0.000000  -0.000000  -0.000000
    2  AS 1  S    0.000001   1.000103  -0.000025   0.000000  -0.000000
    3  AS 1  S   -0.000004   0.000135   0.000004   0.000000  -0.000000
    4  AS 1  S   -0.000005   0.000143   0.000002   0.000000  -0.000000
    5  AS 1  S    0.000016  -0.000426  -0.000003  -0.000000   0.000000
    6  AS 1  S    0.000005  -0.000140  -0.000002   0.000000  -0.000000
    7  AS 1  X    0.000000   0.000000   0.000001   0.991445  -0.130719
    8  AS 1  Y    0.000000   0.000000   0.000001   0.130719   0.991445
    9  AS 1  Z    0.000000   0.000026   1.000026  -0.000001  -0.000001
   10  AS 1  X    0.000000   0.000000   0.000000  -0.000003   0.000000
   11  AS 1  Y    0.000000  -0.000000  -0.000000  -0.000000  -0.000003
   12  AS 1  Z   -0.000000   0.000002   0.000001   0.000000   0.000000
   13  AS 1  X   -0.000000   0.000000  -0.000000  -0.000088   0.000012
   14  AS 1  Y   -0.000000  -0.000000  -0.000000  -0.000012  -0.000088
   15  AS 1  Z   -0.000000   0.000001  -0.000002   0.000000   0.000000
   16  AS 1  X    0.000000  -0.000000  -0.000000  -0.000496   0.000065
   17  AS 1  Y   -0.000000   0.000000  -0.000000  -0.000065  -0.000496
   18  AS 1  Z    0.000000  -0.000001  -0.000447   0.000000   0.000000
   19  AS 1  X    0.000000   0.000000  -0.000000  -0.000089   0.000012
   20  AS 1  Y   -0.000000   0.000000  -0.000000  -0.000012  -0.000089
   21  AS 1  Z    0.000000  -0.000001  -0.000069   0.000000   0.000000
   22  AS 1 XX    0.000000  -0.000001  -0.000001   0.000002  -0.000000
   23  AS 1 YY    0.000000  -0.000001  -0.000001  -0.000002   0.000000
   24  AS 1 ZZ   -0.000000   0.000001   0.000002  -0.000000  -0.000000
   25  AS 1 XY   -0.000000   0.000000  -0.000000  -0.000000  -0.000002
   26  AS 1 XZ    0.000000   0.000000  -0.000000   0.000002  -0.000000
   27  AS 1 YZ    0.000000  -0.000000  -0.000000   0.000000   0.000002
   28  AS 1 XX    0.000000  -0.000002   0.000000  -0.000055   0.000007
   29  AS 1 YY    0.000000  -0.000002   0.000000   0.000055  -0.000007
   30  AS 1 ZZ   -0.000000   0.000004  -0.000001  -0.000000   0.000000
   31  AS 1 XY    0.000000   0.000000   0.000000   0.000008   0.000064
   32  AS 1 XZ    0.000000   0.000000   0.000000  -0.000002   0.000000
   33  AS 1 YZ    0.000000  -0.000000  -0.000000  -0.000000  -0.000002
   34  AS 1 XX    0.000000  -0.000002  -0.000000  -0.000016   0.000002
   35  AS 1 YY    0.000000  -0.000002  -0.000000   0.000016  -0.000002
   36  AS 1 ZZ   -0.000000   0.000004   0.000000  -0.000000   0.000000
   37  AS 1 XY    0.000000   0.000000   0.000000   0.000002   0.000018
   38  AS 1 XZ    0.000000  -0.000000  -0.000000   0.000000  -0.000000
   39  AS 1 YZ    0.000000   0.000000   0.000000   0.000000   0.000000
   40  AS 1 XXX   0.000000  -0.000006   0.000000  -0.000013   0.000002
   41  AS 1 YYY   0.000000  -0.000000  -0.000000  -0.000002  -0.000013
   42  AS 1 ZZZ  -0.000000   0.000000  -0.000000  -0.000000  -0.000000
   43  AS 1 XXY  -0.000000   0.000000   0.000000  -0.000001  -0.000006
   44  AS 1 XXZ   0.000000  -0.000000   0.000000  -0.000000   0.000000
   45  AS 1 YYX  -0.000000   0.000008  -0.000000  -0.000006   0.000001
   46  AS 1 YYZ   0.000000  -0.000000   0.000000   0.000000  -0.000000
   47  AS 1 ZZX   0.000000  -0.000000   0.000000   0.000023  -0.000003
   48  AS 1 ZZY   0.000000   0.000000  -0.000000   0.000003   0.000023
   49  AS 1 XYZ   0.000000  -0.000000  -0.000000   0.000000   0.000001
   50  H  2  S   -0.000000   0.000006  -0.000000   0.000005  -0.000013
   51  H  2  S   -0.000000   0.000011  -0.000001  -0.000027   0.000065
   52  H  2  S   -0.000001   0.000029   0.000000  -0.000018   0.000044
   53  H  2  X   -0.000000   0.000002   0.000000  -0.000004   0.000008
   54  H  2  Y    0.000000  -0.000003  -0.000000   0.000005  -0.000014
   55  H  2  Z    0.000000  -0.000000   0.000001   0.000000  -0.000000
   56  H  2  X   -0.000000   0.000004  -0.000000  -0.000015   0.000033
   57  H  2  Y    0.000000  -0.000008   0.000000   0.000023  -0.000058
   58  H  2  Z    0.000000  -0.000000  -0.000005   0.000000  -0.000000
   59  H  2 XX    0.000000  -0.000001   0.000000   0.000004  -0.000003
   60  H  2 YY   -0.000000   0.000005   0.000000  -0.000013   0.000023
   61  H  2 ZZ    0.000000  -0.000004  -0.000000   0.000008  -0.000020
   62  H  2 XY    0.000000  -0.000006  -0.000000   0.000010  -0.000029
   63  H  2 XZ    0.000000  -0.000000   0.000003   0.000000  -0.000000
   64  H  2 YZ   -0.000000   0.000000  -0.000005  -0.000000   0.000000
   65  H  3  S   -0.000000   0.000006  -0.000000   0.000009   0.000011
   66  H  3  S   -0.000000   0.000011  -0.000001  -0.000043  -0.000056
   67  H  3  S   -0.000001   0.000029   0.000000  -0.000029  -0.000037
   68  H  3  X   -0.000000   0.000002   0.000000  -0.000006  -0.000006
   69  H  3  Y   -0.000000   0.000003   0.000000  -0.000009  -0.000012
   70  H  3  Z    0.000000  -0.000000   0.000001   0.000000   0.000000
   71  H  3  X   -0.000000   0.000004  -0.000000  -0.000023  -0.000028
   72  H  3  Y   -0.000000   0.000008  -0.000000  -0.000037  -0.000050
   73  H  3  Z    0.000000  -0.000000  -0.000005   0.000000   0.000000
   74  H  3 XX    0.000000  -0.000001   0.000000   0.000005   0.000002
   75  H  3 YY   -0.000000   0.000005   0.000000  -0.000018  -0.000019
   76  H  3 ZZ    0.000000  -0.000004  -0.000000   0.000013   0.000017
   77  H  3 XY   -0.000000   0.000006   0.000000  -0.000017  -0.000026
   78  H  3 XZ    0.000000  -0.000000   0.000003   0.000000   0.000000
   79  H  3 YZ    0.000000  -0.000000   0.000005   0.000000   0.000000
   80  H  4  S   -0.000000   0.000006  -0.000000  -0.000014   0.000002
   81  H  4  S   -0.000000   0.000011  -0.000001   0.000069  -0.000009
   82  H  4  S   -0.000001   0.000029   0.000000   0.000047  -0.000006
   83  H  4  X    0.000000  -0.000004  -0.000000  -0.000017   0.000002
   84  H  4  Y    0.000000   0.000000  -0.000000  -0.000000  -0.000001
   85  H  4  Z    0.000000  -0.000000   0.000001  -0.000000   0.000000
   86  H  4  X    0.000000  -0.000009   0.000000  -0.000071   0.000009
   87  H  4  Y    0.000000  -0.000000  -0.000000  -0.000000  -0.000002
   88  H  4  Z    0.000000  -0.000000  -0.000005  -0.000000   0.000000
   89  H  4 XX   -0.000000   0.000008   0.000000   0.000042  -0.000005
   90  H  4 YY    0.000000  -0.000004  -0.000000  -0.000020   0.000003
   91  H  4 ZZ    0.000000  -0.000004  -0.000000  -0.000022   0.000003
   92  H  4 XY    0.000000   0.000000   0.000000  -0.000001  -0.000004
   93  H  4 XZ   -0.000000   0.000000  -0.000006   0.000000  -0.000000
   94  H  4 YZ    0.000000   0.000000   0.000000  -0.000000  -0.000000

                      6          7          8          9         10
                   -8.3450    -6.1998    -6.1998    -6.1964    -2.4338
                     A          A          A          A          A   
    1  AS 1  S   -0.000085  -0.000000   0.000000  -0.000005   0.000000
    2  AS 1  S   -0.000609  -0.000000   0.000000  -0.000033   0.000000
    3  AS 1  S    0.975257  -0.000000   0.000000  -0.000276   0.000000
    4  AS 1  S   -0.001924   0.000000   0.000000  -0.000109  -0.000000
    5  AS 1  S    0.036269   0.000000  -0.000000   0.000078   0.000000
    6  AS 1  S    0.004132   0.000000  -0.000000   0.000035   0.000000
    7  AS 1  X   -0.000000  -0.000075   0.000074  -0.000000   0.000159
    8  AS 1  Y   -0.000000  -0.000074  -0.000075  -0.000000  -0.000146
    9  AS 1  Z   -0.000003  -0.000000   0.000000   0.000031   0.000000
   10  AS 1  X   -0.000000   0.690468  -0.687528  -0.000000   0.000777
   11  AS 1  Y   -0.000000   0.687528   0.690468  -0.000000  -0.000713
   12  AS 1  Z    0.000147   0.000000   0.000000   0.975679  -0.000000
   13  AS 1  X   -0.000000  -0.000708   0.000705  -0.000000   0.003435
   14  AS 1  Y   -0.000000  -0.000705  -0.000708   0.000000  -0.003155
   15  AS 1  Z   -0.000019  -0.000000   0.000000   0.000430  -0.000000
   16  AS 1  X    0.000000   0.033869  -0.033724   0.000000  -0.001393
   17  AS 1  Y   -0.000000   0.033724   0.033869  -0.000000   0.001279
   18  AS 1  Z    0.000029   0.000000   0.000000   0.046644   0.000000
   19  AS 1  X   -0.000000   0.001465  -0.001459  -0.000000  -0.001886
   20  AS 1  Y    0.000000   0.001459   0.001465  -0.000000   0.001732
   21  AS 1  Z    0.000011   0.000000   0.000000   0.001652   0.000000
   22  AS 1 XX    0.000324   0.000431  -0.000429  -0.000043   0.616589
   23  AS 1 YY    0.000324  -0.000431   0.000429  -0.000043  -0.616589
   24  AS 1 ZZ   -0.000647   0.000000   0.000000   0.000086  -0.000000
   25  AS 1 XY   -0.000000  -0.000495  -0.000498   0.000000   0.653866
   26  AS 1 XZ   -0.000000   0.000060  -0.000060   0.000000   0.004993
   27  AS 1 YZ   -0.000000   0.000060   0.000060   0.000000  -0.004586
   28  AS 1 XX    0.000051  -0.000234   0.000233  -0.000007   0.053986
   29  AS 1 YY    0.000051   0.000234  -0.000233  -0.000007  -0.053986
   30  AS 1 ZZ   -0.000101  -0.000000  -0.000000   0.000014  -0.000000
   31  AS 1 XY   -0.000000   0.000270   0.000271   0.000000   0.057249
   32  AS 1 XZ    0.000000   0.000005  -0.000005   0.000000   0.000435
   33  AS 1 YZ   -0.000000   0.000005   0.000005   0.000000  -0.000399
   34  AS 1 XX   -0.000015  -0.000152   0.000151   0.000001   0.000333
   35  AS 1 YY   -0.000015   0.000152  -0.000151   0.000001  -0.000333
   36  AS 1 ZZ    0.000031   0.000000  -0.000000  -0.000002  -0.000000
   37  AS 1 XY   -0.000000   0.000174   0.000175   0.000000   0.000354
   38  AS 1 XZ   -0.000000  -0.000008   0.000008  -0.000000   0.000016
   39  AS 1 YZ    0.000000  -0.000008  -0.000008   0.000000  -0.000014
   40  AS 1 XXX   0.000049   0.000038  -0.000038  -0.000004   0.000324
   41  AS 1 YYY   0.000000   0.000038   0.000038   0.000000  -0.000298
   42  AS 1 ZZZ  -0.000001  -0.000000  -0.000000  -0.000215  -0.000000
   43  AS 1 XXY  -0.000000   0.000017   0.000017   0.000000  -0.000133
   44  AS 1 XXZ   0.000000  -0.000002   0.000002   0.000144   0.000039
   45  AS 1 YYX  -0.000066   0.000017  -0.000017   0.000005   0.000145
   46  AS 1 YYZ   0.000000   0.000002  -0.000002   0.000144  -0.000039
   47  AS 1 ZZX  -0.000000  -0.000068   0.000067   0.000000  -0.000580
   48  AS 1 ZZY   0.000000  -0.000067  -0.000068  -0.000000   0.000533
   49  AS 1 XYZ  -0.000000   0.000002   0.000002  -0.000000   0.000042
   50  H  2  S    0.000002   0.000110   0.000415   0.000001  -0.005280
   51  H  2  S    0.000333   0.000511   0.001925   0.000019  -0.002541
   52  H  2  S   -0.000677  -0.000179  -0.000673  -0.000009  -0.001638
   53  H  2  X   -0.000004   0.000025   0.000012   0.000000  -0.000888
   54  H  2  Y    0.000006   0.000004  -0.000034  -0.000000   0.001268
   55  H  2  Z    0.000000  -0.000000  -0.000001   0.000011   0.000010
   56  H  2  X    0.000006   0.000154   0.000218   0.000004  -0.000199
   57  H  2  Y   -0.000010  -0.000060  -0.000433  -0.000008  -0.000263
   58  H  2  Z    0.000000  -0.000000  -0.000002   0.000124   0.000016
   59  H  2 XX   -0.000004  -0.000037  -0.000036  -0.000001   0.000079
   60  H  2 YY    0.000025   0.000061   0.000125   0.000001  -0.000539
   61  H  2 ZZ   -0.000021  -0.000024  -0.000089  -0.000000   0.000460
   62  H  2 XY   -0.000029  -0.000029  -0.000180  -0.000002   0.000805
   63  H  2 XZ   -0.000000   0.000000  -0.000001  -0.000018   0.000010
   64  H  2 YZ    0.000000   0.000001   0.000002   0.000030  -0.000013
   65  H  3  S    0.000002  -0.000414  -0.000112   0.000001   0.001204
   66  H  3  S    0.000333  -0.001923  -0.000520   0.000019   0.000579
   67  H  3  S   -0.000677   0.000672   0.000182  -0.000009   0.000373
   68  H  3  X   -0.000004  -0.000012  -0.000025   0.000000  -0.000205
   69  H  3  Y   -0.000006  -0.000034   0.000003   0.000000   0.000524
   70  H  3  Z    0.000000   0.000001   0.000000   0.000011  -0.000002
   71  H  3  X    0.000006  -0.000218  -0.000155   0.000004  -0.000871
   72  H  3  Y    0.000010  -0.000433  -0.000061   0.000008   0.000469
   73  H  3  Z    0.000000   0.000002   0.000000   0.000124  -0.000004
   74  H  3 XX   -0.000004   0.000036   0.000037  -0.000001  -0.000262
   75  H  3 YY    0.000025  -0.000125  -0.000061   0.000001   0.000367
   76  H  3 ZZ   -0.000021   0.000089   0.000024  -0.000000  -0.000105
   77  H  3 XY    0.000029  -0.000180  -0.000030   0.000002   0.000020
   78  H  3 XZ   -0.000000   0.000001  -0.000000  -0.000018   0.000005
   79  H  3 YZ   -0.000000   0.000002   0.000001  -0.000030  -0.000007
   80  H  4  S    0.000002   0.000304  -0.000303   0.000001   0.004076
   81  H  4  S    0.000333   0.001411  -0.001405   0.000019   0.001962
   82  H  4  S   -0.000677  -0.000493   0.000491  -0.000009   0.001264
   83  H  4  X    0.000007  -0.000026   0.000026  -0.000000  -0.001190
   84  H  4  Y   -0.000000   0.000017   0.000017   0.000000   0.000305
   85  H  4  Z    0.000000  -0.000001   0.000001   0.000011  -0.000007
   86  H  4  X   -0.000011  -0.000355   0.000354  -0.000009   0.000099
   87  H  4  Y    0.000000   0.000076   0.000076  -0.000000   0.000686
   88  H  4  Z    0.000000  -0.000001   0.000001   0.000124  -0.000013
   89  H  4 XX    0.000040   0.000161  -0.000161   0.000002   0.000763
   90  H  4 YY   -0.000018  -0.000096   0.000096  -0.000002  -0.000408
   91  H  4 ZZ   -0.000021  -0.000065   0.000065  -0.000000  -0.000355
   92  H  4 XY   -0.000000   0.000025   0.000025  -0.000000  -0.000211
   93  H  4 XZ    0.000000   0.000002  -0.000002   0.000035   0.000013
   94  H  4 YZ   -0.000000   0.000000   0.000000   0.000000  -0.000005

                     11         12         13         14         15
                   -2.4338    -2.4296    -2.4287    -2.4287     0.0000
[...]
      878   -0.028959   -0.028959  ++-2+0-
      458    0.027414   -0.027414  2+02+-0
      809   -0.027413    0.027413  20+2+0-
      323   -0.025871    0.025871  +022-+0
      320   -0.025715   -0.025715  0+22200
      264   -0.025624    0.025624  -++2-0+
      534   -0.025471   -0.025471  0+22020
      894   -0.025388   -0.025388  0+22002
      263    0.024419    0.024419  20+2-0+
      252   -0.024419   -0.024419  2+02-+0
      806    0.024227    0.024227  2++200-
      462   -0.022462    0.022462  2+02020
      529    0.021828    0.021828  +022+-0
       79   -0.021688   -0.021688  -+220+0
       54    0.021685   -0.021685  -2+200+

 ---------------------------------------
      - DIABATIC STATES IN CMO -        
 ---------------------------------------

 State #    1  Energy =   -2235.921732660

      Det      Coef        Coefp    Occupancy (Ignoring core)
      ---      ----        ----    --------- --------- -----
        1   -0.976626    0.976626  222+000
      107    0.073565   -0.073565  +22-+00
      179    0.060799    0.060799  202+200
      143    0.060799    0.060799  220+200
      717    0.059085    0.059085  220+002
      393    0.059085    0.059085  202+020
      211   -0.038257   -0.038257  +22+-00
        5   -0.035307   -0.035307  -22++00
       51    0.033490   -0.033490  22+-00+
       76    0.033490    0.033490  2+2-0+0
      227    0.032562    0.032562  +2-+-0+
      218    0.032562   -0.032562  +-2+-+0
      215    0.029795    0.029795  022+200
      390    0.028430   -0.028430  -+2++-0
      705    0.028430    0.028430  -2+++0-
      742   -0.026564   -0.026564  2+-+0+-
      368   -0.026564   -0.026564  2-++0-+
       17   -0.026175   -0.026175  22-+00+
        8   -0.026175    0.026175  2-2+0+0
      773   -0.025771    0.025771  +2-++0-
      424   -0.025771   -0.025771  +-2++-0
      159   -0.024288    0.024288  -2++-0+
      184   -0.024288   -0.024288  -+2+-+0
      354   -0.023314    0.023314  2-+++-0
      739   -0.023314   -0.023314  202++0-
      388    0.023314    0.023314  2+-++-0
      703    0.023314    0.023314  220++0-
      738   -0.022000   -0.022000  2+-++0-
      704    0.022000   -0.022000  2-+++0-
      353    0.022000    0.022000  220++-0
      389   -0.022000   -0.022000  202++-0
      357    0.021967    0.021967  220+020
      753    0.021967    0.021967  202+002
      182   -0.021780    0.021780  2+-+-+0
      148    0.021780    0.021780  2-++-+0
      193    0.021780   -0.021780  202+-0+
      157   -0.021780    0.021780  220+-0+
      429    0.021556    0.021556  022+020
      789    0.021556    0.021556  022+002
      183    0.020552   -0.020552  202+-+0
      192    0.020552   -0.020552  2+-+-0+
      147   -0.020552    0.020552  220+-+0
      158   -0.020552   -0.020552  2-++-0+

 State #    2  Energy =   -2235.728743622

      Det      Coef        Coefp    Occupancy (Ignoring core)
      ---      ----        ----    --------- --------- -----
        2   -0.951772    0.951772  2220+00
      106   -0.172491   -0.172491  +222000
      181   -0.080892   -0.080892  2+20-+0
      156   -0.080891    0.080891  22+0-0+
      387    0.077787   -0.077787  2+20+-0
      702    0.077787    0.077787  22+0+0-
      212    0.064021    0.064021  +220200
      720    0.060960    0.060960  2200+02
      396    0.060960    0.060960  2020+20
      110    0.057395   -0.057395  0222+00
      716    0.035843    0.035843  22+0002
      741   -0.035841    0.035841  2+200+-
      401    0.035841    0.035841  2+200-+
      356   -0.035841   -0.035841  22+0020
      391   -0.034328    0.034328  2+20020
      366   -0.034326    0.034326  22+00-+
      706    0.034326    0.034326  22+00+-
      751    0.034325   -0.034325  2+20002
       74    0.031286   -0.031286  2022+00
       38    0.031285   -0.031285  2202+00
      745   -0.026050   -0.026050  2+-0++-
      371   -0.026050   -0.026050  2-+0+-+
      360    0.025568    0.025568  2200+20
      756    0.025568    0.025568  2020+02
      221    0.022039   -0.022039  +-202+0
      230    0.022039    0.022039  +2-020+
      187   -0.021097   -0.021097  -+202+0
      162   -0.021097    0.021097  -2+020+
      151    0.020298    0.020298  2-+02+0
      196    0.020298   -0.020298  202020+
      185   -0.020298    0.020298  2+-02+0
      160   -0.020298    0.020298  220020+

 State #    3  Energy =   -2235.692951161

      Det      Coef        Coefp    Occupancy (Ignoring core)
      ---      ----        ----    --------- --------- -----
       36    0.691030    0.691030  22+2000
       71    0.652652   -0.652652  2+22000
       38   -0.102077    0.102077  2202+00
       74    0.102077   -0.102077  2022+00
      142   -0.087329   -0.087329  22+0200
       16    0.084944   -0.084944  222000+
      177   -0.082479    0.082479  2+20200
        6    0.081425   -0.081425  22200+0
       52   -0.066965    0.066965  220200+
       78   -0.063691    0.063691  20220+0
      122    0.050958    0.050958  +2-200+
      113   -0.050958    0.050958  +-220+0
      249   -0.050403    0.050403  20+2200
      248   -0.047603    0.047603  2+02200
      108    0.040736    0.040736  +2-2+00
      109    0.038474   -0.038474  +-22+00
      463   -0.038296    0.038296  20+2020
      822   -0.036479    0.036479  2+02002
       88   -0.031307    0.031307  202200+
       42   -0.030510    0.030510  22020+0
      526    0.029237    0.029237  ++220-0
      841   -0.029236    0.029236  +2+200-
       40   -0.028850    0.028850  -2+2+00
      460   -0.028558   -0.028558  -++2+-0
      809    0.027456   -0.027456  20+2+0-
      458   -0.027456    0.027456  2+02+-0
      810    0.027375    0.027375  -++2+0-
       75   -0.027248   -0.027248  -+22+00
       77    0.026574   -0.026574  2+-20+0
       53   -0.024974   -0.024974  2-+200+
      252    0.024461    0.024461  2+02-+0
      263   -0.024461   -0.024461  20+2-0+
      288   -0.023461   -0.023461  +-+2-+0
      332    0.022161   -0.022161  ++-2-0+
       54   -0.021722    0.021722  -2+200+
       79    0.021722    0.021722  -+220+0
      494    0.021037   -0.021037  +-+2+-0

 State #    4  Energy =   -2235.692951161

      Det      Coef        Coefp    Occupancy (Ignoring core)
      ---      ----        ----    --------- --------- -----
       71    0.691030   -0.691030  2+22000
       36   -0.652652   -0.652652  22+2000
       39    0.102077    0.102077  2-+2+00
       73   -0.102077    0.102077  2+-2+00
      177   -0.087329    0.087329  2+20200
        6    0.084944   -0.084944  22200+0
      142    0.082479    0.082479  22+0200
       16   -0.081425    0.081425  222000+
       78   -0.066963    0.066963  20220+0
       52    0.063689   -0.063689  220200+
      123   -0.050958    0.050958  +-2200+
      112   -0.050958   -0.050958  +2-20+0
      248   -0.050403    0.050403  2+02200
      249    0.047603   -0.047603  20+2200
      109    0.040736   -0.040736  +-22+00
      108   -0.038474   -0.038474  +2-2+00
      822   -0.038295    0.038295  2+02002
      463    0.036478   -0.036478  20+2020
       42   -0.031309    0.031309  22020+0
       88    0.030512   -0.030512  202200+
      491    0.029237   -0.029237  +2+20-0
      876    0.029237    0.029237  ++2200-
       75   -0.028850   -0.028850  -+22+00
      810    0.028558    0.028558  -++2+0-
      808   -0.027456    0.027456  2+02+0-
      459   -0.027456    0.027456  20+2+-0
      460    0.027375    0.027375  -++2+-0
       40    0.027248   -0.027248  -2+2+00
       53   -0.026576   -0.026576  2-+200+
       77   -0.024976    0.024976  2+-20+0
      253    0.024461    0.024461  20+2-+0
      262    0.024461    0.024461  2+02-0+
      332    0.023461   -0.023461  ++-2-0+
      288    0.022161    0.022161  +-+2-+0
       89    0.021722    0.021722  -+2200+
       44    0.021722   -0.021722  -2+20+0
      878   -0.021037   -0.021037  ++-2+0-

 ---------------------------------------
    -DIABATIC STATES IN PROTOTYPES-     
 ---------------------------------------

     STATE:    1
 Group Ref#    Coefficients
     1    1    0.999076
     2    2   -0.000017
     3    3    0.000000
     4    4   -0.000000

WEIGHT OF LISTED PROTOTYPES:   99.82%

     STATE:    2
 Group Ref#    Coefficients
     1    1   -0.000017
     2    2    0.997598
     3    3   -0.000006
     4    4   -0.000104

WEIGHT OF LISTED PROTOTYPES:   99.52%

     STATE:    3
 Group Ref#    Coefficients
     1    1    0.000000
     2    2   -0.000006
     3    3    0.997544
     4    4    0.000000

WEIGHT OF LISTED PROTOTYPES:   99.51%

     STATE:    4
 Group Ref#    Coefficients
     1    1   -0.000000
     2    2   -0.000104
     3    3    0.000000
     4    4    0.997544

WEIGHT OF LISTED PROTOTYPES:   99.51%

     DIRECT MAX. DIABATIZATION FINISHED    
 CPU     0: STEP CPU TIME=     0.53 TOTAL CPU TIME=        294.6 (      4.9 MIN)
 TOTAL WALL CLOCK TIME=        318.8 SECONDS, CPU UTILIZATION IS    92.39%

DIABATS FOR SPIN-ORBIT CALCULATION ARE READY

TRANSITION DIPOLES BETWEEN ADIABATS (in A.U.):

STATE PAIR      X         Y         Z
    1    1 -0.000000  0.000000  0.045854
    2    1 -0.000000  0.000000  0.466636
    2    2 -0.000000 -0.000000  0.069596
    3    1  0.002125 -0.002591  0.000000
    3    2  0.105457 -0.128601 -0.000000
    3    3  0.081880 -0.409976  0.022813
    4    1 -0.002591 -0.002125  0.000000
    4    2 -0.128601 -0.105457 -0.000000
    4    3  0.409976  0.081880 -0.000000
    4    4 -0.081880  0.409976  0.022813


TRANSITION DIPOLES BETWEEN DIABATS (in A.U.):

STATE PAIR      X         Y         Z
    1    1  0.000000  0.000000  0.057010
    2    1  0.000002  0.000000  0.466787
    2    2  0.000057  0.000004  0.058439
    3    1 -0.000087  0.005340 -0.000005
    3    2 -0.002724  0.166309 -0.000000
    3    3  0.417847 -0.013733  0.022813
    4    1  0.005336  0.000088 -0.000081
    4    2  0.166165  0.002737 -0.000008
    4    3  0.013728  0.417819 -0.000000
    4    4 -0.417905  0.013728  0.022813

TRANSITION DIPOLES BETWEEN DIRECT MAX. DIABATS (in A.U.):

STATE PAIR      X         Y         Z
    1    1  0.000000  0.000000  0.057010
    2    1  0.000002  0.000000  0.466787
    2    2  0.000057  0.000004  0.058439
    3    1 -0.000087  0.005340 -0.000005
    3    2 -0.002724  0.166309 -0.000000
    3    3  0.417847 -0.013733  0.022813
    4    1  0.005336  0.000088 -0.000081
    4    2  0.166165  0.002737 -0.000008
    4    3  0.013728  0.417819 -0.000000
    4    4 -0.417905  0.013728  0.022813
 No $TRANST Group Found.
 Quit without doing spin-orbit coupling
 ..... DONE WITH MP2 ENERGY .....
 CPU     0: STEP CPU TIME=     0.00 TOTAL CPU TIME=        294.6 (      4.9 MIN)
 TOTAL WALL CLOCK TIME=        318.8 SECONDS, CPU UTILIZATION IS    92.39%
            250000000  WORDS OF DYNAMIC MEMORY USED
 EXECUTION OF GAMESS TERMINATED NORMALLY Mon Dec  4 10:34:03 2023
 DDI: 14063448 bytes (13.4 MB / 1 MWords) used by master data server.
Note: The following floating-point exceptions are signalling: IEEE_DENORMAL

 ----------------------------------------
 CPU timing information for all processes
 ========================================
 0: 293.952 + 0.631 = 294.584
 1: 293.607 + 0.472 = 294.80
 ----------------------------------------
Note: The following floating-point exceptions are signalling: IEEE_DENORMAL
 ddikick.x: exited gracefully.
unset echo
----- accounting info -----
Files used on the master node io001 were:
-rw-r--r-- 1 bjb2chen nooijen   144589 Dec  4 10:28 /home/bjb2chen/gmsscr//AsH3cat_cct_gmcpt_C1_3st_diab_mode1_+0.05x2.F05
-rw-r--r-- 1 bjb2chen nooijen  4166296 Dec  4 10:32 /home/bjb2chen/gmsscr//AsH3cat_cct_gmcpt_C1_3st_diab_mode1_+0.05x2.F09
-rw-r--r-- 1 bjb2chen nooijen  6120544 Dec  4 10:32 /home/bjb2chen/gmsscr//AsH3cat_cct_gmcpt_C1_3st_diab_mode1_+0.05x2.F09.001
-rw-r--r-- 1 bjb2chen nooijen  3010240 Dec  4 10:34 /home/bjb2chen/gmsscr//AsH3cat_cct_gmcpt_C1_3st_diab_mode1_+0.05x2.F10
-rw-r--r-- 1 bjb2chen nooijen  1153664 Dec  4 10:32 /home/bjb2chen/gmsscr//AsH3cat_cct_gmcpt_C1_3st_diab_mode1_+0.05x2.F13
-rw-r--r-- 1 bjb2chen nooijen  1153664 Dec  4 10:32 /home/bjb2chen/gmsscr//AsH3cat_cct_gmcpt_C1_3st_diab_mode1_+0.05x2.F13.001
-rw-r--r-- 1 bjb2chen nooijen   181872 Dec  4 10:34 /home/bjb2chen/gmsscr//AsH3cat_cct_gmcpt_C1_3st_diab_mode1_+0.05x2.F15
-rw-r--r-- 1 bjb2chen nooijen        0 Dec  4 10:28 /home/bjb2chen/gmsscr//AsH3cat_cct_gmcpt_C1_3st_diab_mode1_+0.05x2.F16
-rw-r--r-- 1 bjb2chen nooijen     9808 Dec  4 10:32 /home/bjb2chen/gmsscr//AsH3cat_cct_gmcpt_C1_3st_diab_mode1_+0.05x2.F70
-rw-r--r-- 1 bjb2chen nooijen     9808 Dec  4 10:32 /home/bjb2chen/gmsscr//AsH3cat_cct_gmcpt_C1_3st_diab_mode1_+0.05x2.F70.001
-rw-r--r-- 1 bjb2chen nooijen     9808 Dec  4 10:32 /home/bjb2chen/gmsscr//AsH3cat_cct_gmcpt_C1_3st_diab_mode1_+0.05x2.F71
-rw-r--r-- 1 bjb2chen nooijen     9808 Dec  4 10:32 /home/bjb2chen/gmsscr//AsH3cat_cct_gmcpt_C1_3st_diab_mode1_+0.05x2.F71.001
-rw-r--r-- 1 bjb2chen nooijen    19608 Dec  4 10:32 /home/bjb2chen/gmsscr//AsH3cat_cct_gmcpt_C1_3st_diab_mode1_+0.05x2.F72
-rw-r--r-- 1 bjb2chen nooijen    19608 Dec  4 10:32 /home/bjb2chen/gmsscr//AsH3cat_cct_gmcpt_C1_3st_diab_mode1_+0.05x2.F72.001
-rw-r--r-- 1 bjb2chen nooijen    19608 Dec  4 10:32 /home/bjb2chen/gmsscr//AsH3cat_cct_gmcpt_C1_3st_diab_mode1_+0.05x2.F73
-rw-r--r-- 1 bjb2chen nooijen    19608 Dec  4 10:32 /home/bjb2chen/gmsscr//AsH3cat_cct_gmcpt_C1_3st_diab_mode1_+0.05x2.F73.001
-rw-r--r-- 1 bjb2chen nooijen   961208 Dec  4 10:32 /home/bjb2chen/gmsscr//AsH3cat_cct_gmcpt_C1_3st_diab_mode1_+0.05x2.F74
-rw-r--r-- 1 bjb2chen nooijen   959640 Dec  4 10:32 /home/bjb2chen/gmsscr//AsH3cat_cct_gmcpt_C1_3st_diab_mode1_+0.05x2.F74.001
-rw-r--r-- 1 bjb2chen nooijen        0 Dec  4 10:28 /home/bjb2chen/gmsscr//AsH3cat_cct_gmcpt_C1_3st_diab_mode1_+0.05x2.F75
-rw-r--r-- 1 bjb2chen nooijen        0 Dec  4 10:28 /home/bjb2chen/gmsscr//AsH3cat_cct_gmcpt_C1_3st_diab_mode1_+0.05x2.F75.001
-rw-r--r-- 1 bjb2chen nooijen    78456 Dec  4 10:32 /home/bjb2chen/gmsscr//AsH3cat_cct_gmcpt_C1_3st_diab_mode1_+0.05x2.F76
-rw-r--r-- 1 bjb2chen nooijen    78456 Dec  4 10:32 /home/bjb2chen/gmsscr//AsH3cat_cct_gmcpt_C1_3st_diab_mode1_+0.05x2.F76.001
-rw-r--r-- 1 bjb2chen nooijen        0 Dec  4 10:28 /home/bjb2chen/gmsscr//AsH3cat_cct_gmcpt_C1_3st_diab_mode1_+0.05x2.F77
-rw-r--r-- 1 bjb2chen nooijen        0 Dec  4 10:28 /home/bjb2chen/gmsscr//AsH3cat_cct_gmcpt_C1_3st_diab_mode1_+0.05x2.F77.001
-rw-r--r-- 1 bjb2chen nooijen     6408 Dec  4 10:32 /home/bjb2chen/gmsscr//AsH3cat_cct_gmcpt_C1_3st_diab_mode1_+0.05x2.F78
-rw-r--r-- 1 bjb2chen nooijen     6408 Dec  4 10:32 /home/bjb2chen/gmsscr//AsH3cat_cct_gmcpt_C1_3st_diab_mode1_+0.05x2.F78.001
-rw-r--r-- 1 bjb2chen nooijen    49008 Dec  4 10:32 /home/bjb2chen/gmsscr//AsH3cat_cct_gmcpt_C1_3st_diab_mode1_+0.05x2.F79
-rw-r--r-- 1 bjb2chen nooijen    49008 Dec  4 10:32 /home/bjb2chen/gmsscr//AsH3cat_cct_gmcpt_C1_3st_diab_mode1_+0.05x2.F79.001
-rw-r--r-- 1 bjb2chen nooijen      168 Dec  4 10:32 /home/bjb2chen/gmsscr//AsH3cat_cct_gmcpt_C1_3st_diab_mode1_+0.05x2.F80
-rw-r--r-- 1 bjb2chen nooijen      168 Dec  4 10:32 /home/bjb2chen/gmsscr//AsH3cat_cct_gmcpt_C1_3st_diab_mode1_+0.05x2.F80.001
-rw-r--r-- 1 bjb2chen nooijen   102416 Dec  4 10:32 /home/bjb2chen/gmsscr//AsH3cat_cct_gmcpt_C1_3st_diab_mode1_+0.05x2.F81
-rw-r--r-- 1 bjb2chen nooijen   102416 Dec  4 10:32 /home/bjb2chen/gmsscr//AsH3cat_cct_gmcpt_C1_3st_diab_mode1_+0.05x2.F81.001
-rw-r--r-- 1 bjb2chen nooijen      656 Dec  4 10:32 /home/bjb2chen/gmsscr//AsH3cat_cct_gmcpt_C1_3st_diab_mode1_+0.05x2.F82
-rw-r--r-- 1 bjb2chen nooijen      656 Dec  4 10:32 /home/bjb2chen/gmsscr//AsH3cat_cct_gmcpt_C1_3st_diab_mode1_+0.05x2.F82.001
-rw-r--r-- 1 bjb2chen nooijen    19216 Dec  4 10:32 /home/bjb2chen/gmsscr//AsH3cat_cct_gmcpt_C1_3st_diab_mode1_+0.05x2.F83
-rw-r--r-- 1 bjb2chen nooijen    19216 Dec  4 10:32 /home/bjb2chen/gmsscr//AsH3cat_cct_gmcpt_C1_3st_diab_mode1_+0.05x2.F83.001
-rw-r--r-- 1 bjb2chen nooijen   327696 Dec  4 10:32 /home/bjb2chen/gmsscr//AsH3cat_cct_gmcpt_C1_3st_diab_mode1_+0.05x2.F84
-rw-r--r-- 1 bjb2chen nooijen   327696 Dec  4 10:32 /home/bjb2chen/gmsscr//AsH3cat_cct_gmcpt_C1_3st_diab_mode1_+0.05x2.F84.001
-rw-r--r-- 1 bjb2chen nooijen  3471336 Dec  4 10:32 /home/bjb2chen/gmsscr//AsH3cat_cct_gmcpt_C1_3st_diab_mode1_+0.05x2.F85
-rw-r--r-- 1 bjb2chen nooijen  3471336 Dec  4 10:32 /home/bjb2chen/gmsscr//AsH3cat_cct_gmcpt_C1_3st_diab_mode1_+0.05x2.F85.001
-rw-r--r-- 1 bjb2chen nooijen 14899936 Dec  4 10:32 /home/bjb2chen/gmsscr//AsH3cat_cct_gmcpt_C1_3st_diab_mode1_+0.05x2.F86
-rw-r--r-- 1 bjb2chen nooijen 14550688 Dec  4 10:32 /home/bjb2chen/gmsscr//AsH3cat_cct_gmcpt_C1_3st_diab_mode1_+0.05x2.F86.001
-rw-r--r-- 1 bjb2chen nooijen     1160 Dec  4 10:34 /home/bjb2chen/gmsscr//AsH3cat_cct_gmcpt_C1_3st_diab_mode1_+0.05x2.F87
-rw-r--r-- 1 bjb2chen nooijen     1160 Dec  4 10:34 /home/bjb2chen/gmsscr//AsH3cat_cct_gmcpt_C1_3st_diab_mode1_+0.05x2.F87.001
-rw-r--r-- 1 bjb2chen nooijen    30880 Dec  4 10:34 /home/bjb2chen/gmsscr//AsH3cat_cct_gmcpt_C1_3st_diab_mode1_+0.05x2.F88
-rw-r--r-- 1 bjb2chen nooijen    30880 Dec  4 10:34 /home/bjb2chen/gmsscr//AsH3cat_cct_gmcpt_C1_3st_diab_mode1_+0.05x2.F88.001
-rw-r--r-- 1 bjb2chen nooijen      648 Dec  4 10:32 /home/bjb2chen/gmsscr//AsH3cat_cct_gmcpt_C1_3st_diab_mode1_+0.05x2.F89
-rw-r--r-- 1 bjb2chen nooijen      648 Dec  4 10:32 /home/bjb2chen/gmsscr//AsH3cat_cct_gmcpt_C1_3st_diab_mode1_+0.05x2.F89.001
-rw-r--r-- 1 bjb2chen nooijen        0 Dec  4 10:28 /home/bjb2chen/gmsscr//AsH3cat_cct_gmcpt_C1_3st_diab_mode1_+0.05x2.F90
-rw-r--r-- 1 bjb2chen nooijen        0 Dec  4 10:28 /home/bjb2chen/gmsscr//AsH3cat_cct_gmcpt_C1_3st_diab_mode1_+0.05x2.F90.001
-rw-r--r-- 1 bjb2chen nooijen    13760 Dec  4 10:34 /home/bjb2chen/gmsscr//AsH3cat_cct_gmcpt_C1_3st_diab_mode1_+0.05x2.F91
-rw-r--r-- 1 bjb2chen nooijen    13760 Dec  4 10:34 /home/bjb2chen/gmsscr//AsH3cat_cct_gmcpt_C1_3st_diab_mode1_+0.05x2.F91.001
-rw-r--r-- 1 bjb2chen nooijen    22776 Dec  4 10:32 /home/bjb2chen/gmsscr//AsH3cat_cct_gmcpt_C1_3st_diab_mode1_+0.05x2.F92
-rw-r--r-- 1 bjb2chen nooijen    22776 Dec  4 10:32 /home/bjb2chen/gmsscr//AsH3cat_cct_gmcpt_C1_3st_diab_mode1_+0.05x2.F92.001
-rw-r--r-- 1 bjb2chen nooijen    23168 Dec  4 10:32 /home/bjb2chen/gmsscr//AsH3cat_cct_gmcpt_C1_3st_diab_mode1_+0.05x2.F93
-rw-r--r-- 1 bjb2chen nooijen    23168 Dec  4 10:32 /home/bjb2chen/gmsscr//AsH3cat_cct_gmcpt_C1_3st_diab_mode1_+0.05x2.F93.001
-rw-r--r-- 1 bjb2chen nooijen    22776 Dec  4 10:32 /home/bjb2chen/gmsscr//AsH3cat_cct_gmcpt_C1_3st_diab_mode1_+0.05x2.F94
-rw-r--r-- 1 bjb2chen nooijen    22776 Dec  4 10:32 /home/bjb2chen/gmsscr//AsH3cat_cct_gmcpt_C1_3st_diab_mode1_+0.05x2.F94.001
-rw-r--r-- 1 bjb2chen nooijen    13760 Dec  4 10:32 /home/bjb2chen/gmsscr//AsH3cat_cct_gmcpt_C1_3st_diab_mode1_+0.05x2.F95
-rw-r--r-- 1 bjb2chen nooijen    13760 Dec  4 10:32 /home/bjb2chen/gmsscr//AsH3cat_cct_gmcpt_C1_3st_diab_mode1_+0.05x2.F95.001
-rw-r--r-- 1 bjb2chen nooijen    39248 Dec  4 10:34 /home/bjb2chen/gmsscr//AsH3cat_cct_gmcpt_C1_3st_diab_mode1_+0.05x2.F96
-rw-r--r-- 1 bjb2chen nooijen    39248 Dec  4 10:34 /home/bjb2chen/gmsscr//AsH3cat_cct_gmcpt_C1_3st_diab_mode1_+0.05x2.F96.001
-rw-r--r-- 1 bjb2chen nooijen     1184 Dec  4 10:32 /home/bjb2chen/gmsscr//AsH3cat_cct_gmcpt_C1_3st_diab_mode1_+0.05x2.F97
-rw-r--r-- 1 bjb2chen nooijen     1184 Dec  4 10:32 /home/bjb2chen/gmsscr//AsH3cat_cct_gmcpt_C1_3st_diab_mode1_+0.05x2.F97.001
-rw-r--r-- 1 bjb2chen nooijen     9808 Dec  4 10:32 /home/bjb2chen/gmsscr//AsH3cat_cct_gmcpt_C1_3st_diab_mode1_+0.05x2.F98
-rw-r--r-- 1 bjb2chen nooijen     9808 Dec  4 10:32 /home/bjb2chen/gmsscr//AsH3cat_cct_gmcpt_C1_3st_diab_mode1_+0.05x2.F98.001
-rw-r--r-- 1 bjb2chen nooijen    30264 Dec  4 10:32 /home/bjb2chen/gmsscr//AsH3cat_cct_gmcpt_C1_3st_diab_mode1_+0.05x2.F99
-rw-r--r-- 1 bjb2chen nooijen    30264 Dec  4 10:32 /home/bjb2chen/gmsscr//AsH3cat_cct_gmcpt_C1_3st_diab_mode1_+0.05x2.F99.001
ls: No match.
ls: No match.
ls: No match.
Mon 04 Dec 2023 10:34:06 AM EST
0.287u 0.052s 5:22.32 0.1%	0+0k 288+496io 0pf+0w
