----- GAMESS execution script 'rungms' -----
This job is running on host io002
under operating system Linux at Mon 04 Dec 2023 10:28:47 AM EST
Available scratch disk space (Kbyte units) at beginning of the job is
Filesystem             1K-blocks       Used Available Use% Mounted on
helmholtz.nlogn:/home 6391504896 5230539776 838825984  87% /home
GAMESS temporary binary files will be written to /home/bjb2chen/gmsscr/
GAMESS supplementary output files will be written to /home/bjb2chen/gamess/vibronics/ash3/4state
Copying input file AsH3cat_cct_gmcpt_C1_3st_diab_mode3_+0.05_mode1_+0.05.inp to your run's scratch directory...
cp AsH3cat_cct_gmcpt_C1_3st_diab_mode3_+0.05_mode1_+0.05.inp /home/bjb2chen/gmsscr//AsH3cat_cct_gmcpt_C1_3st_diab_mode3_+0.05_mode1_+0.05.F05
unset echo
 
Assuming a single but multicore node.
 
/home/bjb2chen/gamess/ddikick.x /home/bjb2chen/gamess/gamess.00.x AsH3cat_cct_gmcpt_C1_3st_diab_mode3_+0.05_mode1_+0.05 -ddi 1 2 io002:cpus=2 -scr /home/bjb2chen/gmsscr/

 Distributed Data Interface kickoff program.
 Initiating 2 compute processes on 1 nodes to run the following command:
 /home/bjb2chen/gamess/gamess.00.x AsH3cat_cct_gmcpt_C1_3st_diab_mode3_+0.05_mode1_+0.05 

          ******************************************************
          *         GAMESS VERSION = 02 AUG 2018 (R2)         *
          *             FROM IOWA STATE UNIVERSITY             *
          * M.W.SCHMIDT, K.K.BALDRIDGE, J.A.BOATZ, S.T.ELBERT, *
          *   M.S.GORDON, J.H.JENSEN, S.KOSEKI, N.MATSUNAGA,   *
          *          K.A.NGUYEN, S.J.SU, T.L.WINDUS,           *
          *       TOGETHER WITH M.DUPUIS, J.A.MONTGOMERY       *
          *         J.COMPUT.CHEM.  14, 1347-1363(1993)        *
          **************** 64 BIT LINUX VERSION ****************

  SINCE 1993, STUDENTS AND POSTDOCS WORKING AT IOWA STATE UNIVERSITY
  AND ALSO IN THEIR VARIOUS JOBS AFTER LEAVING ISU HAVE MADE IMPORTANT
  CONTRIBUTIONS TO THE CODE:
     IVANA ADAMOVIC, CHRISTINE AIKENS, YURI ALEXEEV, POOJA ARORA,
     ANDREY ASADCHEV, ROB BELL, PRADIPTA BANDYOPADHYAY, JONATHAN BENTZ,
     BRETT BODE, KURT BRORSEN, CALEB CARLIN, GALINA CHABAN, WEI CHEN,
     CHEOL HO CHOI, PAUL DAY, ALBERT DEFUSCO, NUWAN DESILVA, TIM DUDLEY,
     DMITRI FEDOROV, ALEX FINDLATER, GRAHAM FLETCHER, MARK FREITAG,
     KURT GLAESEMANN, ANASTASIA GUININA,
     DAN KEMP, GRANT MERRILL, NORIYUKI MINEZAWA, JONATHAN MULLIN,
     TAKESHI NAGATA, SEAN NEDD, HEATHER NETZLOFF, BOSILJKA NJEGIC, RYAN OLSON,
     MIKE PAK, BUU PHAM,
     SPENCER PRUITT, LUKE ROSKOP, JIM SHOEMAKER, LYUDMILA SLIPCHENKO,
     TONY SMITH, SAROM SOK LEANG, JIE SONG, TETSUYA TAKETSUGU, SIMON WEBB,
     PENG XU, SOOHAENG YOO, FEDERICO ZAHARIEV

  ADDITIONAL CODE HAS BEEN PROVIDED BY COLLABORATORS IN OTHER GROUPS:
     IOWA STATE UNIVERSITY:
          JOE IVANIC, AARON WEST, LAIMUTIS BYTAUTAS, KLAUS RUEDENBERG
     UNIVERSITY OF TOKYO: KIMIHIKO HIRAO, TAKAHITO NAKAJIMA,
          TAKAO TSUNEDA, MUNEAKI KAMIYA, SUSUMU YANAGISAWA,
          KIYOSHI YAGI, MAHITO CHIBA, SEIKEN TOKURA, NAOAKI KAWAKAMI
     UNIVERSITY OF AARHUS: FRANK JENSEN
     UNIVERSITY OF IOWA: VISVALDAS KAIRYS, HUI LI
     NATIONAL INST. OF STANDARDS AND TECHNOLOGY: WALT STEVENS, DAVID GARMER
     UNIVERSITY OF PISA: BENEDETTA MENNUCCI, JACOPO TOMASI
     UNIVERSITY OF MEMPHIS: HENRY KURTZ, PRAKASHAN KORAMBATH
     UNIVERSITY OF ALBERTA: TOBY ZENG, MARIUSZ KLOBUKOWSKI
     UNIVERSITY OF NEW ENGLAND: MARK SPACKMAN
     MIE UNIVERSITY: HIROAKI UMEDA
     NAT. INST. OF ADVANCED INDUSTRIAL SCIENCE AND TECHNOLOGY: KAZUO KITAURA
     MICHIGAN STATE UNIVERSITY:
          KAROL KOWALSKI, MARTA WLOCH, JEFFREY GOUR, JESSE LUTZ,
          WEI LI, JUN SHEN, J. EMILIANO DEUSTUA, PIOTR PIECUCH
     UNIVERSITY OF MINNESOTA:
          YINAN SHU
     UNIVERSITY OF SILESIA: MONIKA MUSIAL, STANISLAW KUCHARSKI
     FACULTES UNIVERSITAIRES NOTRE-DAME DE LA PAIX:
          OLIVIER QUINET, BENOIT CHAMPAGNE
     UNIVERSITY OF CALIFORNIA - SANTA BARBARA: BERNARD KIRTMAN
     INSTITUTE FOR MOLECULAR SCIENCE:
          KAZUYA ISHIMURA, MICHIO KATOUDA, AND SHIGERU NAGASE
     UNIVERSITY OF NOTRE DAME: ANNA POMOGAEVA, DAN CHIPMAN
     KYUSHU UNIVERSITY:
          HARUYUKI NAKANO,
          FENG LONG GU, JACEK KORCHOWIEC, MARCIN MAKOWSKI, AND YURIKO AOKI,
          HIROTOSHI MORI AND EISAKU MIYOSHI
     PENNSYLVANIA STATE UNIVERSITY:
          TZVETELIN IORDANOV, CHET SWALINA, JONATHAN SKONE,
          SHARON HAMMES-SCHIFFER
     WASEDA UNIVERSITY:
          MASATO KOBAYASHI, TOMOKO AKAMA, TSUGUKI TOUMA,
          TAKESHI YOSHIKAWA, YASUHIRO IKABATA, JUNJI SEINO,
          YUYA NAKAJIMA, HIROMI NAKAI
     NANJING UNIVERSITY: SHUHUA LI
     UNIVERSITY OF NEBRASKA:
          PEIFENG SU, DEJUN SI, NANDUN THELLAMUREGE, YALI WANG, HUI LI
     UNIVERSITY OF ZURICH: ROBERTO PEVERATI, KIM BALDRIDGE
     N. COPERNICUS UNIVERSITY AND JACKSON STATE UNIVERSITY:
          MARIA BARYSZ
     UNIVERSITY OF COPENHAGEN: Jimmy Kromann, CASPER STEINMANN
     TOKYO INSTITUTE OF TECHNOLOGY: HIROYA NAKATA
     NAGOYA UNIVERSITY: YOSHIO NISHIMOTO, STEPHAN IRLE
     MOSCOW STATE UNIVERSITY: VLADIMIR MIRONOV


 PARALLEL VERSION RUNNING ON        2 PROCESSORS IN        1 NODES.

 EXECUTION OF GAMESS BEGUN Mon Dec  4 10:28:47 2023

            ECHO OF THE FIRST FEW INPUT CARDS -
 INPUT CARD> !Step 4: Calculation using REFDET                                              
 INPUT CARD> $system kdiag=3 mwords=250 memddi=8000 parall=.t. $end                         
 INPUT CARD> $contrl runtyp=energy ispher=1 $end                                            
 INPUT CARD> $contrl icut=9 itol=20 inttyp=rysquad qmttol=1.0d-05 nosym=1 $end              
 INPUT CARD> $scf    npunch=2 conv=1.0d-06 dirscf=.t. diis=.t. soscf=.f. ethrsh=10.0 $end   
 INPUT CARD> $contrl scftyp=mcscf  mult=2 maxit=200 icharg=1 mplevl=2 $end                  
 INPUT CARD> $guess  guess=moread norb=85 purify=.t. $end                                   
 INPUT CARD> $basis  gbasis=cct $end                                                        
 INPUT CARD> $mcscf  cistep=gmcci fullnr=.t. finci=mos                                      
 INPUT CARD>         acurcy=1.d-6 maxit=200 $end                                            
 INPUT CARD> $trans  dirtrf=.t. $end                                                        
 INPUT CARD> $mrmp   mrpt=gmcpt rdvecs=.f. $end                                             
 INPUT CARD> $gmcpt  nmofzc=5 nmodoc=9 nmoact=7 nelact=7 stsym(1)=A                         
 INPUT CARD>         reftyp=ormas nspace=1 mstart(1)=15 mine(1)=7 maxe(1)=7                 
 INPUT CARD>         kstate(1)=1,1,1,1                                                      
 INPUT CARD>         wstate(1)=1,1,1,1                                                      
 INPUT CARD>         iwgt=0 thrwgt=-1.0 krot=.f. kszdoe=.f. knospn=.f.                      
 INPUT CARD>         thrde=-1.0 edshft=0.02 $end                                            
 INPUT CARD> $statpt hssend=.t. $end                                                        
 INPUT CARD> $end                                                                           
 INPUT CARD>--- Semi-canonical MOs --- generated at Mon Dec  4 10:21:58 2023                
 INPUT CARD> $VEC                                                                           
 INPUT CARD> 1  1 9.99999416E-01 7.29973887E-07-3.99440478E-06-4.81875831E-06 1.63484706E-05
 INPUT CARD> 1  2 5.36732169E-06-0.00000000E+00-0.00000000E+00-0.00000000E+00 4.03838885E-11
 INPUT CARD> 1  3-0.00000000E+00-0.00000000E+00 7.96211074E-11 1.14517212E-11-0.00000000E+00
 INPUT CARD> 1  4-1.40849369E-11-0.00000000E+00-0.00000000E+00-2.21867430E-11-0.00000000E+00
 INPUT CARD> 1  5-0.00000000E+00 1.08959399E-07 1.08961145E-07-2.17920544E-07-0.00000000E+00
 INPUT CARD> 1  6-0.00000000E+00-0.00000000E+00 7.02728157E-08 7.02573272E-08-1.40530143E-07
 INPUT CARD> 1  7-0.00000000E+00-0.00000000E+00-0.00000000E+00 8.61676265E-08 8.61266319E-08
 INPUT CARD> 1  8-1.72294258E-07-0.00000000E+00-0.00000000E+00-0.00000000E+00 1.61185015E-07
 INPUT CARD> 1  9-0.00000000E+00-0.00000000E+00-0.00000000E+00-0.00000000E+00-2.16246982E-07
 INPUT CARD> 1 10-0.00000000E+00-0.00000000E+00-0.00000000E+00-0.00000000E+00-2.29650252E-07
 INPUT CARD> 1 11-4.66898658E-07-1.12343498E-06-6.64097518E-08 1.15015824E-07-0.00000000E+00
 INPUT CARD> 1 12-1.90369794E-07 3.29734733E-07-0.00000000E+00 4.67684240E-08-2.10541491E-07
 INPUT CARD> 1 13 1.63773067E-07 2.57316182E-07-0.00000000E+00-0.00000000E+00-2.29652599E-07
 INPUT CARD> 1 14-4.66879487E-07-1.12342770E-06-6.64102175E-08-1.15016523E-07-0.00000000E+00
 INPUT CARD> 1 15-1.90364897E-07-3.29724918E-07-0.00000000E+00 4.67679470E-08-2.10540564E-07
 INPUT CARD> 1 16 1.63772617E-07-2.57315196E-07-0.00000000E+00-0.00000000E+00-2.29639944E-07
 INPUT CARD> 1 17-4.66987046E-07-1.12340031E-06 1.32807841E-07-0.00000000E+00-0.00000000E+00
 INPUT CARD> 1 18 3.80780830E-07-0.00000000E+00-0.00000000E+00-3.39206184E-07 1.75440103E-07
 INPUT CARD> 1 19 1.63766080E-07-0.00000000E+00-0.00000000E+00-0.00000000E+00               
 INPUT CARD> 2  1 2.72313662E-06 1.00010341E+00 1.34746909E-04 1.43214017E-04-4.26044547E-04
 INPUT CARD> 2  2-1.40486446E-04 7.10299112E-11-7.88863849E-11-0.00000000E+00-5.42197215E-11
 INPUT CARD> 2  3-1.27361486E-11-0.00000000E+00-1.68049866E-10-3.19745914E-11-0.00000000E+00
 INPUT CARD> 2  4 2.95588732E-11-0.00000000E+00-0.00000000E+00-0.00000000E+00-0.00000000E+00
 INPUT CARD> 2  5-0.00000000E+00-6.69941071E-07-6.69957164E-07 1.33989824E-06-0.00000000E+00
 INPUT CARD> 2  6-0.00000000E+00-0.00000000E+00-2.23303604E-06-2.23305293E-06 4.46608898E-06
 INPUT CARD> 2  7-0.00000000E+00-0.00000000E+00-0.00000000E+00-1.84537905E-06-1.84515653E-06
 INPUT CARD> 2  8 3.69053558E-06 1.25718203E-11-0.00000000E+00-0.00000000E+00-6.15992627E-06
 INPUT CARD> 2  9-0.00000000E+00-0.00000000E+00-0.00000000E+00-0.00000000E+00 8.26439636E-06
  250000000 WORDS OF MEMORY AVAILABLE

     BASIS OPTIONS
     -------------
     GBASIS=CCT          IGAUSS=       0      POLAR=NONE    
     NDFUNC=       0     NFFUNC=       0     DIFFSP=       F
     NPFUNC=       0      DIFFS=       F     BASNAM=        


     RUN TITLE
     ---------
 AsH3+ calculation at 4 states                                                   

 THE POINT GROUP OF THE MOLECULE IS C1      
 THE ORDER OF THE PRINCIPAL AXIS IS     0

 ATOM      ATOMIC                      COORDINATES (BOHR)
           CHARGE         X                   Y                   Z
 AS         33.0     0.0000043134       -0.0000003222       -0.0003770715
 H           1.0    -1.3842480632        2.3975951734       -0.1136985101
 H           1.0    -1.3842481338       -2.3975957792        0.1434920205
 H           1.0     2.7685091150       -0.0000003610       -0.0017643972

          INTERNUCLEAR DISTANCES (ANGS.)
          ------------------------------

                1 AS         2 H          3 H          4 H     

   1 AS      0.0000000    1.4662565 *  1.4670066 *  1.4650299 *
   2 H       1.4662565 *  0.0000000    2.5411532 *  2.5381972 *
   3 H       1.4670066 *  2.5411532 *  0.0000000    2.5386699 *
   4 H       1.4650299 *  2.5381972 *  2.5386699 *  0.0000000  

  * ... LESS THAN  3.000


     ATOMIC BASIS SET
     ----------------
 THE CONTRACTED PRIMITIVE FUNCTIONS HAVE BEEN UNNORMALIZED
 THE CONTRACTED BASIS FUNCTIONS ARE NOW NORMALIZED TO UNITY

  SHELL TYPE  PRIMITIVE        EXPONENT          CONTRACTION COEFFICIENT(S)

 AS        

      1   S       1       8482340.0000000    0.000006800003
      1   S       2       1270151.0000000    0.000052800023
      1   S       3        289057.0000000    0.000277400122
      1   S       4         81879.8500000    0.001170200514
      1   S       5         26716.5600000    0.004242101862
      1   S       6          9647.5840000    0.013655705995
      1   S       7          3764.1190000    0.039339917271
      1   S       8          1561.5660000    0.099929243872
      1   S       9           680.8147000    0.212155593142
      1   S      10           309.2412000    0.336386747683
      1   S      11           145.2574000    0.315512638518
      1   S      12            69.7390500    0.118131251863
      1   S      13            31.7703200    0.008007603516
      1   S      14            15.3917600    0.000329300145
      1   S      15             7.3415260   -0.000152300067
      1   S      16             3.3237160    0.000024700011
      1   S      17             1.4858670   -0.000036600016
      1   S      18             0.2115000   -0.000009400004

      2   S      19       8482340.0000000   -0.000002099844
      2   S      20       1270151.0000000   -0.000016498771
      2   S      21        289057.0000000   -0.000086593551
      2   S      22         81879.8500000   -0.000365272798
      2   S      23         26716.5600000   -0.001330800894
      2   S      24          9647.5840000   -0.004308979105
      2   S      25          3764.1190000   -0.012696354487
      2   S      26          1561.5660000   -0.033613496762
      2   S      27           680.8147000   -0.078941121158
      2   S      28           309.2412000   -0.151434522485
      2   S      29           145.2574000   -0.204186194004
      2   S      30            69.7390500   -0.055732549529
      2   S      31            31.7703200    0.418729516699
      2   S      32            15.3917600    0.575833316987
      2   S      33             7.3415260    0.169671564351
      2   S      34             3.3237160    0.006065748276
      2   S      35             1.4858670    0.001760368903
      2   S      36             0.2115000    0.000231582754

      3   S      37       8482340.0000000    0.000000818623
      3   S      38       1270151.0000000    0.000006548987
      3   S      39        289057.0000000    0.000034484509
      3   S      40         81879.8500000    0.000145612630
      3   S      41         26716.5600000    0.000530877249
      3   S      42          9647.5840000    0.001719313712
      3   S      43          3764.1190000    0.005083344082
      3   S      44          1561.5660000    0.013519053150
      3   S      45           680.8147000    0.032188884481
      3   S      46           309.2412000    0.063284292808
      3   S      47           145.2574000    0.090004159277
      3   S      48            69.7390500    0.026354351138
      3   S      49            31.7703200   -0.251262012099
      3   S      50            15.3917600   -0.520907644337
      3   S      51             7.3415260   -0.056868639208
      3   S      52             3.3237160    0.724870110338
      3   S      53             1.4858670    0.535280112340
      3   S      54             0.2115000   -0.011376408833

      4   S      55       8482340.0000000   -0.000000322182
      4   S      56       1270151.0000000   -0.000002899636
      4   S      57        289057.0000000   -0.000014981451
      4   S      58         81879.8500000   -0.000063147623
      4   S      59         26716.5600000   -0.000230198862
      4   S      60          9647.5840000   -0.000745689664
      4   S      61          3764.1190000   -0.002204850817
      4   S      62          1561.5660000   -0.005870151514
      4   S      63           680.8147000   -0.013996219653
      4   S      64           309.2412000   -0.027636106289
      4   S      65           145.2574000   -0.039550065282
      4   S      66            69.7390500   -0.011844045553
      4   S      67            31.7703200    0.115999445484
      4   S      68            15.3917600    0.253920137348
      4   S      69             7.3415260    0.022886825089
      4   S      70             3.3237160   -0.459365613804
      4   S      71             1.4858670   -0.625893951029
      4   S      72             0.2115000    1.046339525967

      5   S      73             0.4210860    1.000000000000

      6   S      74             0.0889740    1.000000000000

      7   P      75          7423.8610000    0.000459888095
      7   P      76          1759.5170000    0.003982196918
      7   P      77           570.2292000    0.021463244409
      7   P      78           216.5800000    0.082459565479
      7   P      79            90.7342500    0.223884404601
      7   P      80            40.3087900    0.392060251256
      7   P      81            18.5555000    0.354214630915
      7   P      82             8.3965430    0.104861385592
      7   P      83             3.7673670    0.003366312861
      7   P      84             1.6297010    0.001849452126
      7   P      85             0.2225030    0.000229694054

      8   P      86          7423.8610000   -0.000183933273
      8   P      87          1759.5170000   -0.001603623364
      8   P      88           570.2292000   -0.008714684634
      8   P      89           216.5800000   -0.034482567311
      8   P      90            90.7342500   -0.097731519242
      8   P      91            40.3087900   -0.183894927481
      8   P      92            18.5555000   -0.150374370146
      8   P      93             8.3965430    0.201569541112
      8   P      94             3.7673670    0.550783570924
      8   P      95             1.6297010    0.395483295494
      8   P      96             0.2225030   -0.005537068181

      9   P      97          7423.8610000    0.000067575484
      9   P      98          1759.5170000    0.000590735054
      9   P      99           570.2292000    0.003209920148
      9   P     100           216.5800000    0.012757201241
      9   P     101            90.7342500    0.036296841475
      9   P     102            40.3087900    0.069067055648
      9   P     103            18.5555000    0.055084858236
      9   P     104             8.3965430   -0.092951347783
      9   P     105             3.7673670   -0.256062306212
      9   P     106             1.6297010   -0.211535143443
      9   P     107             0.2225030    0.991664800915

     10   P     108             0.5682630    1.000000000000

     11   P     109             0.0804050    1.000000000000

     12   D     110           321.0196000    0.001738948853
     12   D     111            96.2493100    0.014620594557
     12   D     112            36.6449600    0.064875906626
     12   D     113            15.4939600    0.184323725081
     12   D     114             6.8911380    0.331417629149
     12   D     115             3.0548310    0.389664464481
     12   D     116             1.3142410    0.283997092847

     13   D     117             0.5134300    1.000000000000

     14   D     118             0.1877000    1.000000000000

     15   F     119             0.4158000    1.000000000000

 H         

     16   S     120            33.8700000    0.025494863235
     16   S     121             5.0950000    0.190362765893
     16   S     122             1.1590000    0.852162022245

     17   S     123             0.3258000    1.000000000000

     18   S     124             0.1027000    1.000000000000

     19   P     125             1.4070000    1.000000000000

     20   P     126             0.3880000    1.000000000000

     21   D     127             1.0570000    1.000000000000

 H         

     22   S     128            33.8700000    0.025494863235
     22   S     129             5.0950000    0.190362765893
     22   S     130             1.1590000    0.852162022245

     23   S     131             0.3258000    1.000000000000

     24   S     132             0.1027000    1.000000000000

     25   P     133             1.4070000    1.000000000000

     26   P     134             0.3880000    1.000000000000

     27   D     135             1.0570000    1.000000000000

 H         

     28   S     136            33.8700000    0.025494863235
     28   S     137             5.0950000    0.190362765893
     28   S     138             1.1590000    0.852162022245

     29   S     139             0.3258000    1.000000000000

     30   S     140             0.1027000    1.000000000000

     31   P     141             1.4070000    1.000000000000

     32   P     142             0.3880000    1.000000000000

     33   D     143             1.0570000    1.000000000000

 TOTAL NUMBER OF BASIS SET SHELLS             =   33
 NUMBER OF CARTESIAN GAUSSIAN BASIS FUNCTIONS =   94
 NOTE: THIS RUN WILL RESTRICT THE MO VARIATION SPACE TO SPHERICAL HARMONICS.
 THE NUMBER OF ORBITALS KEPT IN THE VARIATIONAL SPACE WILL BE PRINTED LATER.
 NUMBER OF ELECTRONS                          =   35
 CHARGE OF MOLECULE                           =    1
 SPIN MULTIPLICITY                            =    2
 NUMBER OF OCCUPIED ORBITALS (ALPHA)          =   18
 NUMBER OF OCCUPIED ORBITALS (BETA )          =   17
 TOTAL NUMBER OF ATOMS                        =    4
 THE NUCLEAR REPULSION ENERGY IS       36.3585129178

     $CONTRL OPTIONS
     ---------------
 SCFTYP=MCSCF        RUNTYP=ENERGY       EXETYP=RUN     
 MPLEVL=       2     CITYP =NONE         CCTYP =NONE         VBTYP =NONE    
 DFTTYP=NONE         TDDFT =NONE    
 MULT  =       2     ICHARG=       1     NZVAR =       0     COORD =UNIQUE  
 PP    =NONE         RELWFN=NONE         LOCAL =NONE         NUMGRD=       F
 ISPHER=       1     NOSYM =       1     MAXIT =     200     UNITS =ANGS    
 PLTORB=       F     MOLPLT=       F     AIMPAC=       F     FRIEND=        
 NPRINT=       7     IREST =       0     GEOM  =INPUT   
 NORMF =       0     NORMP =       0     ITOL  =      20     ICUT  =       9
 INTTYP=RYSQUAD      GRDTYP=BEST         QMTTOL= 1.0E-05

     $SYSTEM OPTIONS
     ---------------
  REPLICATED MEMORY=   250000000 WORDS (ON EVERY NODE).
 DISTRIBUTED MEMDDI=        8000 MILLION WORDS IN AGGREGATE,
 MEMDDI DISTRIBUTED OVER   2 PROCESSORS IS  4000000000 WORDS/PROCESSOR.
 TOTAL MEMORY REQUESTED ON EACH PROCESSOR=  4250000000 WORDS.
 TIMLIM=      525600.00 MINUTES, OR     365.0 DAYS.
 PARALL= T  BALTYP=  DLB     KDIAG=    3  COREFL= F
 MXSEQ2=     300 MXSEQ3=     150  mem10=         0

          ----------------
          PROPERTIES INPUT
          ----------------

     MOMENTS            FIELD           POTENTIAL          DENSITY
 IEMOM =       1   IEFLD =       0   IEPOT =       0   IEDEN =       0
 WHERE =COMASS     WHERE =NUCLEI     WHERE =NUCLEI     WHERE =NUCLEI  
 OUTPUT=BOTH       OUTPUT=BOTH       OUTPUT=BOTH       OUTPUT=BOTH    
 IEMINT=       0   IEFINT=       0                     IEDINT=       0
                                                       MORB  =       0

     -------------------------------
     INTEGRAL TRANSFORMATION OPTIONS
     -------------------------------
     NWORD  =            0
     CUTOFF = 1.0E-09     MPTRAN =       0
     DIRTRF =       T     AOINTS =DUP     

          ----------------------
          MCSCF INPUT PARAMETERS
          ----------------------
 CONVERGER SELECTION: FOCAS = F  SOSCF = F  FULLNR = T  QUD = F  JACOBI = F
 SECULAR EQUATION METHOD CISTEP = GMCCI   
 --- GENERAL INPUT OPTIONS:
 MAXIT =     200  MICIT =       1  ACURCY= 1.000E-06
 DAMP  =   0.000  CANONC=       T  ENGTOL= 1.000E-10
 EKT   =       F  NPUNCH=       2  NWORD =         0
 REGENERATE CI AFTER CONVERGENCE = NONE    
 DIABATIZATION AFTER CONVERGENCE =        F
 --- INPUT FOR FULLNR CONVERGER:
 METHOD=DM2       FORS  =       F  DROPC =       T
 LINSER=       F  FCORE =       F  NORB  =      94

          ----------------------
          INTEGRAL INPUT OPTIONS
          ----------------------
 NOPK  =       1 NORDER=       0 SCHWRZ=       T

 ------------------------------------------
 MULTIREFERENCE PERTURBATION THEORY CONTROL
 ------------------------------------------
 MRPT=GMCPT    READ CONVERGED MCSCF VECTORS= F


     ------------------------------------------
     THE POINT GROUP IS C1 , NAXIS= 1, ORDER= 1
     ------------------------------------------

 -- VARIATIONAL SPACE WILL BE RESTRICTED TO PURE SPHERICAL HARMONICS ONLY --
 AFTER EXCLUDING CONTAMINANT COMBINATIONS FROM THE CARTESIAN GAUSSIAN BASIS
 SET, THE NUMBER OF SPHERICAL HARMONICS KEPT IN THE VARIATION SPACE IS   85

     DIMENSIONS OF THE SYMMETRY SUBSPACES ARE
 A   =   85

 ..... DONE SETTING UP THE RUN .....
 CPU     0: STEP CPU TIME=     0.08 TOTAL CPU TIME=          0.1 (      0.0 MIN)
 TOTAL WALL CLOCK TIME=          0.3 SECONDS, CPU UTILIZATION IS    27.59%

          ********************
          1 ELECTRON INTEGRALS
          ********************
 TIME TO DO   DIPOLE INTEGRALS=      0.00
 ...... END OF ONE-ELECTRON INTEGRALS ......
 CPU     0: STEP CPU TIME=     0.00 TOTAL CPU TIME=          0.1 (      0.0 MIN)
 TOTAL WALL CLOCK TIME=          0.3 SECONDS, CPU UTILIZATION IS    26.67%

          -------------
          GUESS OPTIONS
          -------------
          GUESS =MOREAD            NORB  =      85          NORDER=       0
          MIX   =       F          PRTMO =       F          PUNMO =       F
          TOLZ  = 1.0E-08          TOLE  = 1.0E-05
          SYMDEN=       F          PURIFY=       T

 INITIAL GUESS ORBITALS GENERATED BY MOREAD   ROUTINE.

 STATISTICS FOR GENERATION OF SYMMETRY ORBITAL -Q- MATRIX
 NUMBER OF CARTESIAN ATOMIC ORBITALS=         94
 NUMBER OF SPHERICAL CONTAMINANTS DROPPED=     9
 NUMBER OF LINEARLY DEPENDENT MOS DROPPED=     0
 TOTAL NUMBER OF MOS IN VARIATION SPACE=      85
 ORBITAL PURIFICATION WILL OCCUR

 SYMMETRIES FOR INITIAL GUESS ORBITALS FOLLOW.   BOTH SET(S).
    18 ORBITALS ARE OCCUPIED (   14 CORE ORBITALS).
     1=A        2=A        3=A        4=A        5=A        6=A        7=A   
     8=A        9=A       10=A       11=A       12=A       13=A       14=A   
    15=A       16=A       17=A       18=A       19=A       20=A       21=A   
    22=A       23=A       24=A       25=A       26=A       27=A       28=A   
    29=A       30=A       31=A       32=A       33=A       34=A       35=A   
    36=A       37=A       38=A       39=A       40=A       41=A       42=A   
    43=A       44=A       45=A       46=A       47=A       48=A       49=A   
    50=A       51=A       52=A       53=A       54=A       55=A       56=A   
    57=A       58=A       59=A       60=A       61=A       62=A       63=A   
    64=A       65=A       66=A       67=A       68=A       69=A       70=A   
    71=A       72=A       73=A       74=A       75=A       76=A       77=A   
    78=A       79=A       80=A       81=A       82=A       83=A       84=A   
    85=A   
 ...... END OF INITIAL ORBITAL SELECTION ......
 CPU     0: STEP CPU TIME=     0.06 TOTAL CPU TIME=          0.1 (      0.0 MIN)
 TOTAL WALL CLOCK TIME=          0.4 SECONDS, CPU UTILIZATION IS    35.90%

                    ----------------------
                    AO INTEGRAL TECHNOLOGY
                    ----------------------
     S,P,L SHELL ROTATED AXIS INTEGRALS, REPROGRAMMED BY
        KAZUYA ISHIMURA (IMS) AND JOSE SIERRA (SYNSTAR).
     S,P,D,L SHELL ROTATED AXIS INTEGRALS PROGRAMMED BY
        KAZUYA ISHIMURA (INSTITUTE FOR MOLECULAR SCIENCE).
     S,P,D,F,G SHELL TO TOTAL QUARTET ANGULAR MOMENTUM SUM 5,
        ERIC PROGRAM BY GRAHAM FLETCHER (ELORET AND NASA ADVANCED
        SUPERCOMPUTING DIVISION, AMES RESEARCH CENTER).
     S,P,D,F,G,L SHELL GENERAL RYS QUADRATURE PROGRAMMED BY
        MICHEL DUPUIS (PACIFIC NORTHWEST NATIONAL LABORATORY).

          --------------------
          2 ELECTRON INTEGRALS
          --------------------

 DIRECT SCF METHOD SKIPS INTEGRAL STORAGE ON DISK.
 DIRECT TRANSFORMATION SKIPS AO INTEGRAL STORAGE ON DISK.
  ...... END OF TWO-ELECTRON INTEGRALS .....
 STEP CPU TIME =     0.02 TOTAL CPU TIME =          0.2 (      0.0 MIN)
 TOTAL WALL CLOCK TIME=          0.4 SECONDS, CPU UTILIZATION IS    40.00%
 DDI: Creating Array [0] - 8836 x 231 = 2041116 words.
 DDI: Creating Array [1] - 64 x 4851 = 310464 words.
 DDI: Creating Array [2] - 231 x 231 = 53361 words.
 DDI: Creating Array [3] - 4465 x 231 = 1031415 words.

          -----------------
          MCSCF CALCULATION
          -----------------

 ----- NUCLEAR ENERGY ----- =        36.3585129178

     -------------------------------------------------
     GMC-PT/GMC-QDPT or general MCSCF input parameters
     -------------------------------------------------
 # of frozen core orbs. =         5 ->         0
 # of doubly occ. orbs. =         9
 # of active      orbs. =         7
 # of virtual     orbs. =        64
 # of active electrons  =         7
 # of states in CI      =         4
 Highest state in CI    =         4
 kstate =  1 1 1 1
 avecoe =  0.250 0.250 0.250 0.250
 State symmetry           = A           
 Assigned symmetry number = 1

 <<<Act. MO sym.: 1111111

 <<<Division of 1-ext.:  0 0
 <<<Division of 2-ext.:  0 1

 *** Reference space

 Reference type: ORMAS (= Occupation restricted multiple active space)
 # of orbitals          =  7
 # of minimum electrons =  7
 # of maximum electrons =  7
 State symmetry    =    1 (input)
 2*Sz              =    1 (input)
 Spin multiplicity =    2 (input)
 Dimension of reference space =      1225  (from      3432 walks)

 Dimension of reference space =      1225  (from      1225 walks)

 <<<Ionized spaces for Ref-CI:
      0:         1225 /   -1-0:         1960 /  0-1-0:         2891

 EVALUATING EXCHANGE INTEGRALS FOR DIRECT INTEGRAL TRANSFORMATION
 SCHWARZ INEQUALITY OVERHEAD:      4465 INTEGRALS, T=        0.11

     --------------------------------------------
     PARTIAL TWO ELECTRON INTEGRAL TRANSFORMATION
     --------------------------------------------

 NUMBER OF CORE MOLECULAR ORBITALS     =   14
 NUMBER OF OCCUPIED MOLECULAR ORBITALS =   21
 TOTAL NUMBER OF MOLECULAR ORBITALS    =   85
 TOTAL NUMBER OF ATOMIC ORBITALS       =   94
 THRESHOLD FOR KEEPING TRANSFORMED 2E- INTEGRALS = 1.000E-09

 -------------------------------     ------------------------------
 DISTRIBUTED DATA TRANSFORMATION     PROGRAM WRITTEN BY G. FLETCHER
 -------------------------------     ------------------------------

 THE DISTRIBUTED MEMORY REQUIRED FOR THIS STEP IS MEMDDI=         4 MWORDS
 CREATING DISTRIBUTED STORAGE FOR [VIR OCC|VIR OCC] INTEGRALS
 CREATING DISTRIBUTED STORAGE FOR [VIR OCC|OCC OCC] INTEGRALS
 CREATING DISTRIBUTED STORAGE FOR [OCC OCC|OCC OCC] INTEGRALS
 CREATING DISTRIBUTED STORAGE FOR [VIR VIR|OCC OCC] INTEGRALS
 FOR    2 PROCESSORS, THE REPLICATED MEMORY NEEDED IS      615709 WORDS.
 SCHWARZ INEQUALITY OVERHEAD:      4465 INTEGRALS, T=        0.21

      DIRECT 4-INDEX TRANSFORMATION 
      SCHWARZ INEQUALITY TEST SKIPPED       1082 INTEGRAL BLOCKS
 ----- FROZEN CORE ENERGY =     -2258.5362219793
 ... END OF INTEGRAL TRANSFORMATION ...
 CPU     0: STEP CPU TIME=    14.43 TOTAL CPU TIME=         14.6 (      0.2 MIN)
 TOTAL WALL CLOCK TIME=         15.0 SECONDS, CPU UTILIZATION IS    97.46%

     --------------------------------     -----------------------------
     MCHF NEWTON-RAPHSON OPTIMIZATION     CODE WRITTEN BY MICHEL DUPUIS
     --------------------------------     -----------------------------
     PARALLEL VERSION WRITTEN BY G. FLETCHER (ELORET)
     NASA ADVANCED SUPERCOMPUTING DIVISION, AMES RESEARCH CENTER

 NUMBER OF INDEPENDENT ORBITAL ROTATION PARAMETERS =  1436
 ..... DONE SOLVING NEWTON-RAPHSON EQUATIONS .....
 CPU     0: STEP CPU TIME=     1.03 TOTAL CPU TIME=         15.6 (      0.3 MIN)
 TOTAL WALL CLOCK TIME=         16.7 SECONDS, CPU UTILIZATION IS    93.70%
 ..... DONE WITH NTN-RPH ORBITAL ROTATIONS ..... 
 CPU     0: STEP CPU TIME=     0.00 TOTAL CPU TIME=         15.6 (      0.3 MIN)
 TOTAL WALL CLOCK TIME=         16.7 SECONDS, CPU UTILIZATION IS    93.65%
 MAXIMUM MEMORY USED BY NTN-RPH CODE WAS    197978 WORDS.

 ITER     TOTAL ENERGY      DEL(E)  LAGRANGIAN ASYMMETRY   SQCDF  MICIT   DAMP
   1    -2235.517059159 -0.517059159  0.005190   47   17 6.378E-04  1   0.0000
   2    -2235.517250927 -0.000191768  0.000225   26   19 9.334E-06  1   0.0000
   3    -2235.517251923 -0.000000996  0.000056   59   18 2.047E-06  1   0.0000
   4    -2235.517252039 -0.000000117  0.000017   59   18 7.940E-07  1   0.0000
   5    -2235.517252079 -0.000000039  0.000010   60   19 3.205E-07  1   0.0000
   6    -2235.517252094 -0.000000016  0.000007   60   19 1.293E-07  1   0.0000
   7    -2235.517252101 -0.000000006  0.000004   60   19 5.206E-08  1   0.0000
   8    -2235.517252103 -0.000000003  0.000003   60   19 2.119E-08  1   0.0000
   9    -2235.517252104 -0.000000001  0.000002   60   19 8.637E-09  1   0.0000
  10    -2235.517252105 -0.000000000  0.000001   60   19 3.466E-09  1   0.0000
  11    -2235.517252105 -0.000000000  0.000001   60   19 1.452E-09  1   0.0000

          --------------------
          LAGRANGIAN CONVERGED
          --------------------

 FINAL MCSCF ENERGY IS    -2235.5172521049 AFTER  11 ITERATIONS

 -MCCI- BASED ON OPTIMIZED ORBITALS
 ----------------------------------

 PLEASE NOTE: IF THE ACTIVE ORBITALS ARE CANONICALIZED BELOW,
 THE FOLLOWING CI EXPANSION COEFFICIENTS AND THE DENSITY DO NOT
 CORRESPOND TO THE PRINTED ORBITALS.  THE PRINTED EXPANSIONS MATCH
 THE ORBITALS USED DURING THE LAST ITERATION.  IF YOU WISH TO SEE
 CI EXPANSIONS BASED ON THE CANONICAL (OR NATURAL) ORBITALS, YOU
 MUST RUN A CI CALCULATION WITH THAT ORBITAL CHOICE READ IN $VEC.

 Averaged energy =   -2235.517252105

 State #    1  Energy =   -2235.693519587  S =  0.500

      Det      Coef    Occupancy (Ignoring core)
      ---      ----    --------- --------- -----
        1    0.976069  11110001110000
      107   -0.073558  11101000111000
      143    0.060954  11011001100100
      179    0.060862  10111001010100
      393    0.059122  10110101010010
      717    0.059142  11010011100001

 State #    2  Energy =   -2235.482174433  S =  0.500

      Det      Coef    Occupancy (Ignoring core)
      ---      ----    --------- --------- -----
        2   -0.951018  11101001110000
      106    0.172241  11110000111000
      110    0.057403  01111000111000
      156   -0.081355  11100011100100
      181    0.080650  11100101010100
      212   -0.064281  11101000110100
      387    0.077432  11101001010010
      396   -0.061196  10101101010010
      702   -0.078074  11101001100001
      720   -0.061062  11001011100001

 State #    3  Energy =   -2235.446713632  S =  0.500

      Det      Coef    Occupancy (Ignoring core)
      ---      ----    --------- --------- -----
        6   -0.062886  11100101110000
       16   -0.099165  11100011110000
       36    0.803171  11110001101000
       39    0.089190  10111001101000
       52    0.077750  11010011101000
       71   -0.506437  11110001011000
       73    0.089221  11011001011000
      142   -0.101745  11101001100100
      177    0.064057  11101001010100
      249    0.058726  10111001001100

 State #    4  Energy =   -2235.446600768  S =  0.500

      Det      Coef    Occupancy (Ignoring core)
      ---      ----    --------- --------- -----
        6    0.099507  11100101110000
       16   -0.062762  11100011110000
       36    0.506335  11110001101000
       38    0.089302  11011001101000
       71    0.803674  11110001011000
       74   -0.089354  10111001011000
       78   -0.078235  10110101011000
      142   -0.064118  11101001100100
      177   -0.101616  11101001010100
      248   -0.058855  11011001001100

 DENSITY MATRIX OVER ACTIVE MO-S

             1           2           3           4           5

    1    1.9718774
    2    0.0000987   1.7202926
    3    0.0000470  -0.0000519   1.7198909
    4   -0.0001374  -0.0011925  -0.0129018   1.2377698
    5    0.0034699  -0.0003201  -0.0001524  -0.0038557   0.2906752
    6   -0.0000096   0.0006384   0.0000620   0.0025062  -0.0011634
    7   -0.0000420   0.0000588   0.0013515   0.0263944  -0.0002824

             6           7

    6    0.0294298
    7    0.0000780   0.0300643

 FORMING THE "STANDARD FOCK OPERATOR" IN DIRECT AO INTEGRAL MODE...
 ONLY THE   14 CORE AND   64 VIRTUAL ORBITALS WILL BE CANONICALIZED

          ----------------------
          MCSCF NATURAL ORBITALS
          ----------------------

                      1          2          3          4          5
                 -432.8955   -56.6209   -50.4654   -50.4653   -50.4653
                     A          A          A          A          A   
    1  AS 1  S    0.999999   0.000003   0.000000  -0.000000  -0.000000
    2  AS 1  S    0.000001   1.000103  -0.000013   0.000000   0.000000
    3  AS 1  S   -0.000004   0.000134   0.000002  -0.000000  -0.000000
    4  AS 1  S   -0.000005   0.000143   0.000001  -0.000001  -0.000001
    5  AS 1  S    0.000016  -0.000426  -0.000001  -0.000000  -0.000000
    6  AS 1  S    0.000005  -0.000140  -0.000001  -0.000000  -0.000000
    7  AS 1  X    0.000000  -0.000000   0.003717   0.398817   0.917050
    8  AS 1  Y    0.000000   0.000001   0.053511   0.915663  -0.398431
    9  AS 1  Z    0.000000   0.000013   0.998586  -0.050552   0.017937
   10  AS 1  X    0.000000   0.000000   0.000000  -0.000001  -0.000002
   11  AS 1  Y   -0.000000   0.000000   0.000000  -0.000002   0.000001
   12  AS 1  Z   -0.000000   0.000001   0.000001   0.000000  -0.000000
   13  AS 1  X    0.000000  -0.000000   0.000000  -0.000035  -0.000081
   14  AS 1  Y    0.000000   0.000000  -0.000000  -0.000080   0.000035
   15  AS 1  Z   -0.000000   0.000000  -0.000002   0.000004  -0.000002
   16  AS 1  X    0.000000  -0.000000  -0.000002  -0.000200  -0.000459
   17  AS 1  Y    0.000000  -0.000000  -0.000024  -0.000458   0.000199
   18  AS 1  Z    0.000000  -0.000000  -0.000446   0.000025  -0.000009
   19  AS 1  X    0.000000  -0.000000  -0.000000  -0.000036  -0.000082
   20  AS 1  Y    0.000000  -0.000000  -0.000004  -0.000082   0.000036
   21  AS 1  Z    0.000000  -0.000000  -0.000069   0.000005  -0.000002
   22  AS 1 XX    0.000000  -0.000001  -0.000001   0.000001   0.000002
   23  AS 1 YY    0.000000  -0.000001  -0.000001  -0.000001  -0.000002
   24  AS 1 ZZ   -0.000000   0.000001   0.000001  -0.000000   0.000000
   25  AS 1 XY    0.000000   0.000000   0.000000  -0.000002   0.000001
   26  AS 1 XZ   -0.000000   0.000000   0.000000   0.000000   0.000001
   27  AS 1 YZ   -0.000000   0.000000   0.000000   0.000001  -0.000000
   28  AS 1 XX    0.000000  -0.000002   0.000000  -0.000022  -0.000051
   29  AS 1 YY    0.000000  -0.000002   0.000000   0.000022   0.000051
   30  AS 1 ZZ   -0.000000   0.000004  -0.000000   0.000000   0.000000
   31  AS 1 XY   -0.000000   0.000000  -0.000000   0.000058  -0.000026
   32  AS 1 XZ   -0.000000   0.000000  -0.000000  -0.000003   0.000001
   33  AS 1 YZ   -0.000000   0.000000  -0.000000  -0.000002  -0.000003
   34  AS 1 XX    0.000000  -0.000002  -0.000000  -0.000006  -0.000014
   35  AS 1 YY    0.000000  -0.000002  -0.000000   0.000006   0.000014
   36  AS 1 ZZ   -0.000000   0.000004   0.000000   0.000000   0.000000
   37  AS 1 XY   -0.000000   0.000000  -0.000000   0.000016  -0.000007
   38  AS 1 XZ   -0.000000   0.000000   0.000000  -0.000001   0.000000
   39  AS 1 YZ   -0.000000   0.000000   0.000000  -0.000000  -0.000001
   40  AS 1 XXX   0.000000  -0.000006   0.000000  -0.000005  -0.000012
   41  AS 1 YYY   0.000000  -0.000000   0.000000  -0.000012   0.000005
   42  AS 1 ZZZ  -0.000000   0.000000  -0.000000  -0.000003   0.000001
   43  AS 1 XXY   0.000000  -0.000000   0.000000  -0.000005   0.000002
   44  AS 1 XXZ  -0.000000   0.000000   0.000000   0.000000  -0.000000
   45  AS 1 YYX  -0.000000   0.000008  -0.000000  -0.000002  -0.000005
   46  AS 1 YYZ   0.000000  -0.000000   0.000000   0.000003  -0.000001
   47  AS 1 ZZX  -0.000000   0.000000  -0.000000   0.000009   0.000021
   48  AS 1 ZZY  -0.000000   0.000000  -0.000000   0.000021  -0.000009
   49  AS 1 XYZ   0.000000  -0.000001   0.000000   0.000001   0.000001
   50  H  2  S   -0.000000   0.000006  -0.000000  -0.000008   0.000011
   51  H  2  S   -0.000000   0.000011  -0.000000   0.000041  -0.000056
   52  H  2  S   -0.000001   0.000029   0.000000   0.000028  -0.000038
   53  H  2  X   -0.000000   0.000002   0.000000   0.000005  -0.000007
   54  H  2  Y    0.000000  -0.000003   0.000000  -0.000009   0.000011
   55  H  2  Z   -0.000000   0.000000   0.000001   0.000000  -0.000001
   56  H  2  X   -0.000000   0.000004  -0.000000   0.000020  -0.000029
   57  H  2  Y    0.000000  -0.000008  -0.000000  -0.000037   0.000049
   58  H  2  Z   -0.000000   0.000000  -0.000005   0.000002  -0.000002
   59  H  2 XX    0.000000  -0.000001   0.000000  -0.000000   0.000005
   60  H  2 YY   -0.000000   0.000005  -0.000000   0.000013  -0.000023
   61  H  2 ZZ    0.000000  -0.000004   0.000000  -0.000013   0.000018
   62  H  2 XY    0.000000  -0.000006   0.000000  -0.000020   0.000024
   63  H  2 XZ   -0.000000   0.000000   0.000003   0.000001  -0.000001
   64  H  2 YZ    0.000000  -0.000000  -0.000005  -0.000001   0.000002
   65  H  3  S   -0.000000   0.000006  -0.000000   0.000014   0.000002
   66  H  3  S   -0.000000   0.000011  -0.000000  -0.000068  -0.000008
   67  H  3  S   -0.000001   0.000029   0.000000  -0.000047  -0.000005
   68  H  3  X   -0.000000   0.000002   0.000000  -0.000008  -0.000001
   69  H  3  Y   -0.000000   0.000003   0.000000  -0.000014  -0.000001
   70  H  3  Z    0.000000  -0.000000   0.000001   0.000001   0.000000
   71  H  3  X   -0.000000   0.000004  -0.000000  -0.000035  -0.000005
   72  H  3  Y   -0.000000   0.000007  -0.000000  -0.000061  -0.000006
   73  H  3  Z    0.000000  -0.000000  -0.000005   0.000004   0.000000
   74  H  3 XX    0.000000  -0.000001   0.000000   0.000004   0.000003
   75  H  3 YY   -0.000000   0.000005   0.000001  -0.000026  -0.000006
   76  H  3 ZZ    0.000000  -0.000004  -0.000001   0.000022   0.000002
   77  H  3 XY   -0.000000   0.000006   0.000000  -0.000031  -0.000001
   78  H  3 XZ    0.000000  -0.000000   0.000003   0.000002   0.000000
   79  H  3 YZ    0.000000  -0.000001   0.000005   0.000003   0.000001
   80  H  4  S   -0.000000   0.000006  -0.000000  -0.000006  -0.000013
   81  H  4  S   -0.000000   0.000012  -0.000000   0.000028   0.000064
   82  H  4  S   -0.000001   0.000029   0.000000   0.000019   0.000043
   83  H  4  X    0.000000  -0.000004  -0.000000  -0.000007  -0.000015
   84  H  4  Y    0.000000  -0.000000   0.000000  -0.000001   0.000000
   85  H  4  Z    0.000000  -0.000000   0.000001   0.000000   0.000000
   86  H  4  X    0.000000  -0.000009   0.000000  -0.000029  -0.000066
   87  H  4  Y    0.000000  -0.000000  -0.000000  -0.000002   0.000001
   88  H  4  Z    0.000000  -0.000000  -0.000005   0.000000   0.000000
   89  H  4 XX   -0.000000   0.000008   0.000000   0.000017   0.000038
   90  H  4 YY    0.000000  -0.000004  -0.000000  -0.000008  -0.000018
   91  H  4 ZZ    0.000000  -0.000004  -0.000000  -0.000009  -0.000020
   92  H  4 XY   -0.000000  -0.000000  -0.000000  -0.000004   0.000002
   93  H  4 XZ    0.000000  -0.000000  -0.000006   0.000000  -0.000000
   94  H  4 YZ   -0.000000   0.000000  -0.000000  -0.000000  -0.000000

                      6          7          8          9         10
                   -8.3449    -6.1997    -6.1997    -6.1963    -2.4337
                     A          A          A          A          A   
    1  AS 1  S   -0.000085  -0.000000  -0.000000  -0.000002   0.000000
    2  AS 1  S   -0.000608  -0.000003  -0.000002  -0.000017   0.000002
    3  AS 1  S    0.975261  -0.000019  -0.000010  -0.000138   0.000007
    4  AS 1  S   -0.001918  -0.000012  -0.000006  -0.000055  -0.000001
    5  AS 1  S    0.036268   0.000005   0.000002   0.000039  -0.000010
    6  AS 1  S    0.004129   0.000004   0.000002   0.000017  -0.000005
    7  AS 1  X   -0.000000  -0.000104  -0.000018   0.000000   0.000214
    8  AS 1  Y   -0.000000   0.000018  -0.000104   0.000002  -0.000021
    9  AS 1  Z   -0.000001  -0.000001   0.000006   0.000032   0.000000
   10  AS 1  X    0.000007   0.960082   0.166354   0.003928   0.001038
   11  AS 1  Y    0.000007  -0.166324   0.958676   0.052256  -0.000101
   12  AS 1  Z    0.000073   0.005050  -0.052090   0.974272   0.000001
   13  AS 1  X   -0.000003  -0.000981  -0.000170   0.000002   0.004618
   14  AS 1  Y   -0.000001   0.000170  -0.000980   0.000023  -0.000456
   15  AS 1  Z   -0.000009  -0.000005   0.000053   0.000431   0.000006
   16  AS 1  X    0.000002   0.047092   0.008160   0.000188  -0.001878
   17  AS 1  Y    0.000001  -0.008158   0.047026   0.002498   0.000183
   18  AS 1  Z    0.000015   0.000248  -0.002555   0.046574  -0.000002
   19  AS 1  X    0.000002   0.002035   0.000353   0.000007  -0.002545
   20  AS 1  Y    0.000000  -0.000353   0.002035   0.000088   0.000251
   21  AS 1  Z    0.000005   0.000011  -0.000111   0.001650  -0.000003
   22  AS 1 XX    0.000324   0.000604   0.000104  -0.000021   0.833345
   23  AS 1 YY    0.000319  -0.000599  -0.000098  -0.000021  -0.830595
   24  AS 1 ZZ   -0.000643  -0.000005  -0.000006   0.000043  -0.002750
   25  AS 1 XY   -0.000001   0.000122  -0.000683   0.000000   0.094868
   26  AS 1 XZ   -0.000004   0.000033   0.000043   0.000003  -0.005604
   27  AS 1 YZ   -0.000060   0.000029   0.000051   0.000005   0.050704
   28  AS 1 XX    0.000050  -0.000324  -0.000057  -0.000004   0.072953
   29  AS 1 YY    0.000051   0.000322   0.000056  -0.000004  -0.072711
   30  AS 1 ZZ   -0.000101   0.000002   0.000001   0.000007  -0.000242
   31  AS 1 XY    0.000000  -0.000064   0.000374   0.000000   0.008305
   32  AS 1 XZ   -0.000001   0.000008  -0.000019   0.000002  -0.000492
   33  AS 1 YZ   -0.000009  -0.000020  -0.000002   0.000001   0.004439
   34  AS 1 XX   -0.000015  -0.000212  -0.000037   0.000000   0.000451
   35  AS 1 YY   -0.000015   0.000211   0.000036   0.000000  -0.000446
   36  AS 1 ZZ    0.000030   0.000001   0.000001  -0.000001  -0.000006
   37  AS 1 XY    0.000000  -0.000042   0.000242  -0.000000   0.000052
   38  AS 1 XZ    0.000000  -0.000003  -0.000014  -0.000001   0.000006
   39  AS 1 YZ    0.000003  -0.000012  -0.000009  -0.000000   0.000026
   40  AS 1 XXX   0.000049   0.000052   0.000009  -0.000001   0.000443
   41  AS 1 YYY   0.000000  -0.000009   0.000052   0.000017  -0.000048
   42  AS 1 ZZZ  -0.000000  -0.000001   0.000011  -0.000213  -0.000002
   43  AS 1 XXY   0.000000  -0.000005   0.000024   0.000008  -0.000016
   44  AS 1 XXZ  -0.000000  -0.000002  -0.000002   0.000144   0.000019
   45  AS 1 YYX  -0.000066   0.000024   0.000004   0.000003   0.000186
   46  AS 1 YYZ   0.000001   0.000004  -0.000014   0.000142  -0.000016
   47  AS 1 ZZX  -0.000000  -0.000094  -0.000016  -0.000002  -0.000780
   48  AS 1 ZZY  -0.000000   0.000016  -0.000093  -0.000031   0.000080
   49  AS 1 XYZ   0.000004  -0.000007  -0.000000  -0.000000  -0.000057
   50  H  2  S    0.000002  -0.000274   0.000329   0.000001  -0.003215
   51  H  2  S    0.000332  -0.001270   0.001526   0.000010  -0.001566
   52  H  2  S   -0.000675   0.000444  -0.000534  -0.000004  -0.000998
   53  H  2  X   -0.000004   0.000005   0.000027   0.000000  -0.000783
   54  H  2  Y    0.000007   0.000028  -0.000015   0.000000   0.000630
   55  H  2  Z   -0.000000  -0.000001   0.000000   0.000011  -0.000028
   56  H  2  X    0.000006  -0.000088   0.000251   0.000003  -0.000676
   57  H  2  Y   -0.000009   0.000317  -0.000299   0.000003  -0.000472
   58  H  2  Z    0.000001  -0.000016   0.000014   0.000124   0.000033
   59  H  2 XX   -0.000004   0.000008  -0.000051  -0.000000  -0.000097
   60  H  2 YY    0.000025  -0.000066   0.000121   0.000003  -0.000182
   61  H  2 ZZ   -0.000021   0.000058  -0.000069  -0.000003   0.000279
   62  H  2 XY   -0.000028   0.000128  -0.000126  -0.000002   0.000587
   63  H  2 XZ    0.000001  -0.000006   0.000006  -0.000018  -0.000024
   64  H  2 YZ   -0.000003   0.000007  -0.000010   0.000030   0.000023
   65  H  3  S    0.000002  -0.000147  -0.000401   0.000001  -0.002274
   66  H  3  S    0.000332  -0.000682  -0.001862   0.000010  -0.001112
   67  H  3  S   -0.000675   0.000238   0.000652  -0.000004  -0.000705
   68  H  3  X   -0.000004   0.000014  -0.000023   0.000000  -0.000682
   69  H  3  Y   -0.000007  -0.000021  -0.000022   0.000001  -0.000370
   70  H  3  Z    0.000001   0.000001   0.000002   0.000011   0.000025
   71  H  3  X    0.000006   0.000001  -0.000266   0.000003  -0.000774
   72  H  3  Y    0.000009  -0.000198  -0.000388   0.000010   0.000503
   73  H  3  Z   -0.000001   0.000011   0.000023   0.000123  -0.000020
   74  H  3 XX   -0.000004  -0.000010   0.000051  -0.000000  -0.000146
   75  H  3 YY    0.000024  -0.000021  -0.000134  -0.000002  -0.000051
   76  H  3 ZZ   -0.000020   0.000031   0.000083   0.000003   0.000197
   77  H  3 XY    0.000028  -0.000078  -0.000160  -0.000000  -0.000466
   78  H  3 XZ   -0.000002   0.000005   0.000009  -0.000018   0.000031
   79  H  3 YZ   -0.000003   0.000004   0.000015  -0.000030   0.000019
   80  H  4  S    0.000002   0.000423   0.000073   0.000001   0.005505
   81  H  4  S    0.000334   0.001963   0.000341   0.000010   0.002650
   82  H  4  S   -0.000678  -0.000685  -0.000119  -0.000005   0.001705
   83  H  4  X    0.000007  -0.000036  -0.000006  -0.000000  -0.001609
   84  H  4  Y    0.000000  -0.000004   0.000024   0.000001   0.000044
   85  H  4  Z    0.000000  -0.000000  -0.000001   0.000011  -0.000001
   86  H  4  X   -0.000011  -0.000494  -0.000086  -0.000004   0.000131
   87  H  4  Y   -0.000000  -0.000018   0.000106   0.000007   0.000098
   88  H  4  Z    0.000000   0.000002  -0.000005   0.000124  -0.000014
   89  H  4 XX    0.000040   0.000224   0.000039   0.000001   0.001032
   90  H  4 YY   -0.000018  -0.000134  -0.000023  -0.000001  -0.000551
   91  H  4 ZZ   -0.000021  -0.000091  -0.000016  -0.000000  -0.000481
   92  H  4 XY    0.000000  -0.000006   0.000035   0.000002  -0.000030
   93  H  4 XZ   -0.000000   0.000000  -0.000002   0.000035   0.000003
   94  H  4 YZ   -0.000000   0.000003   0.000001   0.000000   0.000004

                     11         12         13         14         15
                   -2.4337    -2.4296    -2.4287    -2.4287     1.9719
                     A          A          A          A          A   
    1  AS 1  S   -0.000000  -0.000096  -0.000000  -0.000000   0.000446
    2  AS 1  S   -0.000002  -0.000643  -0.000000  -0.000000   0.002683
    3  AS 1  S   -0.000005  -0.001507  -0.000000  -0.000000   0.004446
    4  AS 1  S   -0.000000  -0.003253  -0.000000   0.000000   0.556969
    5  AS 1  S    0.000007   0.000600  -0.000000   0.000000   0.235482
    6  AS 1  S    0.000005   0.003473   0.000000   0.000000   0.131066
    7  AS 1  X   -0.000021  -0.000001  -0.000005   0.000001  -0.000009
    8  AS 1  Y   -0.000215  -0.000000  -0.000001  -0.000005  -0.000004
    9  AS 1  Z    0.000012  -0.000004  -0.000001   0.000000  -0.000008
   10  AS 1  X   -0.000106  -0.000001  -0.000085   0.000013  -0.000116
   11  AS 1  Y   -0.001056  -0.000003  -0.000013  -0.000085  -0.000048
   12  AS 1  Z    0.000057  -0.000071  -0.000010   0.000003  -0.000131
   13  AS 1  X   -0.000455  -0.000012  -0.000025   0.000004   0.000099
   14  AS 1  Y   -0.004616  -0.000006  -0.000004  -0.000025   0.000051
   15  AS 1  Z    0.000249  -0.000071   0.000001   0.000001  -0.000012
   16  AS 1  X    0.000187   0.000002   0.000047  -0.000007   0.000120
   17  AS 1  Y    0.001883   0.000000   0.000008   0.000047   0.000053
   18  AS 1  Z   -0.000102   0.000019   0.000011  -0.000001   0.000056
   19  AS 1  X    0.000251   0.000001  -0.000012   0.000002  -0.000010
   20  AS 1  Y    0.002546  -0.000002  -0.000002  -0.000012  -0.000014
   21  AS 1  Z   -0.000138  -0.000012   0.000003   0.000001  -0.000210
   22  AS 1 XX   -0.082505  -0.483626   0.003706  -0.000576  -0.014293
   23  AS 1 YY    0.081197  -0.480281   0.016178   0.088267  -0.014143
   24  AS 1 ZZ    0.001308   0.963907  -0.019884  -0.087691   0.028436
   25  AS 1 XY    0.960618  -0.000007   0.052371  -0.000536   0.000039
   26  AS 1 XZ   -0.051472   0.006625   0.956107  -0.144523   0.000196
   27  AS 1 YZ   -0.012238   0.089677   0.142938   0.952133   0.002643
   28  AS 1 XX   -0.007223  -0.041075   0.000311  -0.000048   0.008449
   29  AS 1 YY    0.007108  -0.040786   0.001377   0.007492   0.008356
   30  AS 1 ZZ    0.000115   0.081861  -0.001688  -0.007444  -0.016805
   31  AS 1 XY    0.084092   0.000000   0.004447  -0.000041  -0.000025
   32  AS 1 XZ   -0.004506   0.000563   0.081166  -0.012270  -0.000116
   33  AS 1 YZ   -0.001070   0.007616   0.012133   0.080827  -0.001563
   34  AS 1 XX   -0.000045  -0.000678  -0.000015   0.000002   0.004353
   35  AS 1 YY    0.000041  -0.000660   0.000035   0.000085   0.004339
   36  AS 1 ZZ    0.000003   0.001337  -0.000020  -0.000087  -0.008692
   37  AS 1 XY    0.000508   0.000002   0.000055   0.000021  -0.000005
   38  AS 1 XZ   -0.000028   0.000009   0.000952  -0.000145  -0.000061
   39  AS 1 YZ   -0.000015   0.000124   0.000141   0.000947  -0.000809
   40  AS 1 XXX  -0.000046  -0.001018  -0.000014   0.000002   0.013451
   41  AS 1 YYY  -0.000435  -0.000004  -0.000030  -0.000012   0.000014
   42  AS 1 ZZZ  -0.000094   0.000030  -0.000005  -0.000004  -0.000078
   43  AS 1 XXY  -0.000185  -0.000002   0.000011  -0.000011   0.000006
   44  AS 1 XXZ   0.000008  -0.000015   0.000238  -0.000036  -0.000019
   45  AS 1 YYX  -0.000012   0.001355  -0.000012  -0.000023  -0.017979
   46  AS 1 YYZ   0.000117  -0.000025  -0.000232   0.000041   0.000124
   47  AS 1 ZZX   0.000073   0.000010   0.000031   0.000021  -0.000068
   48  AS 1 ZZY   0.000769   0.000006   0.000029   0.000027  -0.000025
   49  AS 1 XYZ   0.000041  -0.000084  -0.000037  -0.000265   0.001112
   50  H  2  S   -0.004476  -0.002799  -0.000010   0.000024   0.074428
   51  H  2  S   -0.002172  -0.000904  -0.000023   0.000058   0.107597
   52  H  2  S   -0.001399  -0.000354  -0.000007   0.000018   0.010161
   53  H  2  X   -0.000426  -0.000441   0.000000   0.000007   0.003485
   54  H  2  Y    0.001259   0.000764  -0.000004   0.000015  -0.006034
   55  H  2  Z   -0.000062  -0.000034  -0.000161   0.000410   0.000285
   56  H  2  X    0.000566   0.000061   0.000001   0.000017   0.006371
   57  H  2  Y    0.000207  -0.000109  -0.000011   0.000041  -0.011012
   58  H  2  Z   -0.000006   0.000016  -0.000417   0.001066   0.000522
   59  H  2 XX    0.000263  -0.000016   0.000002   0.000004   0.000017
   60  H  2 YY   -0.000651  -0.000382   0.000012  -0.000026   0.001558
   61  H  2 ZZ    0.000388   0.000398  -0.000015   0.000022  -0.001574
   62  H  2 XY    0.000551   0.000368   0.000001   0.000007  -0.001553
   63  H  2 XZ   -0.000027  -0.000014   0.000007   0.000226   0.000070
   64  H  2 YZ    0.000055   0.000040   0.000179  -0.000317  -0.000178
   65  H  3  S    0.005004  -0.002794  -0.000016  -0.000020   0.074306
   66  H  3  S    0.002440  -0.000911  -0.000039  -0.000048   0.107473
   67  H  3  S    0.001567  -0.000356  -0.000012  -0.000015   0.010159
   68  H  3  X    0.000567  -0.000439  -0.000002  -0.000007   0.003476
   69  H  3  Y    0.001352  -0.000761  -0.000021  -0.000023   0.006019
   70  H  3  Z   -0.000079   0.000048  -0.000273  -0.000342  -0.000361
   71  H  3  X   -0.000421   0.000060  -0.000004  -0.000017   0.006360
   72  H  3  Y    0.000113   0.000107  -0.000054  -0.000060   0.010995
   73  H  3  Z   -0.000012   0.000004  -0.000711  -0.000894  -0.000658
   74  H  3 XX   -0.000239  -0.000016   0.000001  -0.000004   0.000016
   75  H  3 YY    0.000670  -0.000380  -0.000030  -0.000025   0.001552
   76  H  3 ZZ   -0.000431   0.000396   0.000029   0.000029  -0.001568
   77  H  3 XY    0.000652  -0.000366  -0.000005  -0.000016   0.001548
   78  H  3 XZ   -0.000038   0.000026  -0.000059  -0.000217  -0.000096
   79  H  3 YZ   -0.000079   0.000057  -0.000262  -0.000248  -0.000210
   80  H  4  S   -0.000544  -0.002810   0.000025  -0.000004   0.074594
   81  H  4  S   -0.000260  -0.000888   0.000061  -0.000009   0.107734
   82  H  4  S   -0.000168  -0.000355   0.000019  -0.000003   0.010130
   83  H  4  X    0.000159   0.000888  -0.000007   0.000001  -0.006995
   84  H  4  Y    0.000447   0.000000   0.000024  -0.000000   0.000000
   85  H  4  Z   -0.000024   0.000002   0.000438  -0.000066   0.000004
   86  H  4  X   -0.000014  -0.000132  -0.000017   0.000003  -0.012759
   87  H  4  Y    0.001007   0.000000   0.000062  -0.000000   0.000001
   88  H  4  Z   -0.000053   0.000011   0.001131  -0.000171   0.000008
   89  H  4 XX   -0.000102  -0.000570   0.000003  -0.000001   0.002353
   90  H  4 YY    0.000054   0.000169   0.000001   0.000010  -0.000769
   91  H  4 ZZ    0.000048   0.000401  -0.000004  -0.000009  -0.001585
   92  H  4 XY   -0.000310  -0.000000  -0.000023   0.000000  -0.000001
   93  H  4 XZ    0.000016  -0.000004  -0.000415   0.000063  -0.000006
   94  H  4 YZ   -0.000003   0.000014   0.000015   0.000101  -0.000051

                     16         17         18         19         20
                    1.7203     1.7202     1.2380     0.2907     0.0295
                     A          A          A          A          A   
    1  AS 1  S   -0.000003  -0.000002  -0.000008   0.001260   0.000026
    2  AS 1  S   -0.000023  -0.000016  -0.000063   0.009572   0.000182
    3  AS 1  S   -0.000097  -0.000065  -0.000382   0.063256   0.000810
    4  AS 1  S   -0.000383  -0.000265  -0.002996   0.491475   0.002112
    5  AS 1  S   -0.000129  -0.000086  -0.001467   0.249981   0.000877
    6  AS 1  S   -0.000368  -0.000254  -0.002572   0.658993  -0.000082
    7  AS 1  X   -0.003841  -0.001089  -0.000001  -0.000011   0.003826
    8  AS 1  Y    0.001092  -0.003825  -0.000013   0.000001   0.013610
    9  AS 1  Z   -0.000043   0.000210  -0.000248   0.000034  -0.000745
   10  AS 1  X   -0.051162  -0.014514  -0.000004  -0.000178   0.051681
   11  AS 1  Y    0.014542  -0.050970  -0.000063   0.000006   0.183859
   12  AS 1  Z   -0.000575   0.002792  -0.001181   0.000464  -0.010066
   13  AS 1  X    0.350313   0.099650   0.002454  -0.002550   0.264387
   14  AS 1  Y   -0.099553   0.349888   0.032838  -0.000308   0.940831
   15  AS 1  Z    0.003943  -0.019160   0.612274   0.004502  -0.051509
   16  AS 1  X    0.160649   0.045668   0.000907  -0.000901   0.071272
   17  AS 1  Y   -0.045656   0.160355   0.012143  -0.000140   0.253653
   18  AS 1  Z    0.001808  -0.008781   0.226409   0.001369  -0.013887
   19  AS 1  X    0.063452   0.018076   0.001182  -0.001969   0.057154
   20  AS 1  Y   -0.018040   0.063499   0.015797  -0.000161   0.203595
   21  AS 1  Z    0.000716  -0.003476   0.294543   0.003528  -0.011146
   22  AS 1 XX   -0.051644  -0.014697  -0.000097   0.057348   0.028270
   23  AS 1 YY    0.051458   0.014554  -0.000100   0.057768  -0.027628
   24  AS 1 ZZ    0.000186   0.000143   0.000196  -0.115116  -0.000642
   25  AS 1 XY   -0.016916   0.059295  -0.000001  -0.000004  -0.115201
   26  AS 1 XZ    0.000675  -0.003246  -0.000015  -0.000804   0.006604
   27  AS 1 YZ   -0.002981  -0.001608   0.000012  -0.010739   0.004100
   28  AS 1 XX    0.027291   0.007768  -0.000036  -0.047495  -0.016429
   29  AS 1 YY   -0.027192  -0.007698  -0.000034  -0.047731   0.015928
   30  AS 1 ZZ   -0.000099  -0.000070   0.000069   0.095225   0.000501
   31  AS 1 XY    0.008930  -0.031319  -0.000001   0.000013   0.067046
   32  AS 1 XZ   -0.000409   0.001699  -0.000004   0.000665  -0.004149
   33  AS 1 YZ    0.001590   0.000797   0.000008   0.008880  -0.003429
   34  AS 1 XX    0.020495   0.005840  -0.000218  -0.091630   0.011139
   35  AS 1 YY   -0.020414  -0.005790  -0.000215  -0.092173  -0.011402
   36  AS 1 ZZ   -0.000081  -0.000049   0.000432   0.183804   0.000264
   37  AS 1 XY    0.006697  -0.023522  -0.000003  -0.000024  -0.045535
   38  AS 1 XZ   -0.000314   0.001273  -0.000029   0.001287   0.001761
   39  AS 1 YZ    0.001195   0.000591   0.000033   0.017143  -0.001276
   40  AS 1 XXX   0.007537   0.002150   0.000258  -0.043888  -0.001840
   41  AS 1 YYY  -0.002126   0.007423   0.001142  -0.000047  -0.005941
   42  AS 1 ZZZ  -0.000337   0.001637  -0.014151   0.000512  -0.001319
   43  AS 1 XXY  -0.000946   0.003307   0.000513  -0.000021  -0.002737
   44  AS 1 XXZ   0.000002  -0.000191   0.009557  -0.000108   0.000097
   45  AS 1 YYX   0.003295   0.000906  -0.000192   0.058812  -0.000518
   46  AS 1 YYZ   0.000451  -0.002005   0.009428  -0.000579   0.001673
   47  AS 1 ZZX  -0.013406  -0.003790  -0.000154   0.000070   0.002987
   48  AS 1 ZZY   0.003798  -0.013266  -0.002044   0.000084   0.010708
   49  AS 1 XYZ  -0.000982  -0.000484   0.000002  -0.003650   0.000618
   50  H  2  S   -0.116509   0.112948   0.000892  -0.139620  -0.186603
   51  H  2  S   -0.204337   0.198087   0.001892  -0.326516  -0.534392
   52  H  2  S   -0.058185   0.056487   0.000874  -0.302632  -0.048900
   53  H  2  X   -0.002936   0.005185   0.000038   0.000551   0.000643
   54  H  2  Y    0.007787  -0.006200   0.000207  -0.001023   0.009042
   55  H  2  Z   -0.000377   0.000284   0.004508   0.000085  -0.000570
   56  H  2  X   -0.006342   0.013001   0.000134  -0.000474  -0.023063
   57  H  2  Y    0.018901  -0.014365   0.001168   0.000554   0.094115
   58  H  2  Z   -0.000928   0.000661   0.023102  -0.000079  -0.005266
   59  H  2 XX    0.001329   0.000592   0.000018  -0.000483   0.003669
   60  H  2 YY   -0.002917   0.000956  -0.000192   0.000005  -0.009187
   61  H  2 ZZ    0.001589  -0.001548   0.000175   0.000478   0.005517
   62  H  2 XY    0.001735  -0.002938   0.000049  -0.000439   0.004113
   63  H  2 XZ   -0.000082   0.000138   0.001325   0.000026  -0.000289
   64  H  2 YZ    0.000256  -0.000127  -0.002290   0.000035   0.000925
   65  H  3  S   -0.039578  -0.157323   0.000894  -0.139827   0.257383
   66  H  3  S   -0.069447  -0.276042   0.001897  -0.327129   0.738222
   67  H  3  S   -0.019760  -0.078686   0.000874  -0.303264   0.068387
   68  H  3  X    0.000232  -0.005947   0.000038   0.000559   0.003651
   69  H  3  Y   -0.003349  -0.009360   0.000276   0.001030   0.009823
   70  H  3  Z    0.000189   0.000565   0.004497  -0.000026  -0.000426
   71  H  3  X    0.001454  -0.014391   0.000134  -0.000468   0.056234
   72  H  3  Y   -0.008499  -0.022171   0.001310  -0.000596   0.116096
   73  H  3  Z    0.000470   0.001327   0.023084  -0.000020  -0.006016
   74  H  3 XX    0.001439   0.000198   0.000018  -0.000482  -0.001687
   75  H  3 YY   -0.001973  -0.002345   0.000234   0.000006   0.009299
   76  H  3 ZZ    0.000534   0.002147  -0.000251   0.000475  -0.007612
   77  H  3 XY    0.000073  -0.003408   0.000093   0.000445   0.007960
   78  H  3 XZ   -0.000005   0.000205   0.001321  -0.000021  -0.000394
   79  H  3 YZ    0.000161   0.000315   0.002281   0.000023  -0.001014
   80  H  4  S    0.156246   0.044431   0.000887  -0.138734  -0.072594
   81  H  4  S    0.273774   0.077852   0.001881  -0.324072  -0.207513
   82  H  4  S    0.078003   0.022206   0.000866  -0.299794  -0.018568
   83  H  4  X   -0.011027  -0.003134  -0.000021  -0.001141   0.002967
   84  H  4  Y   -0.000532   0.001872   0.000242  -0.000004   0.006876
   85  H  4  Z    0.000034  -0.000099   0.004518   0.000037  -0.000413
   86  H  4  X   -0.026174  -0.007435   0.000011   0.000640   0.036235
   87  H  4  Y   -0.001556   0.005485   0.001239  -0.000026   0.036552
   88  H  4  Z    0.000109  -0.000287   0.023105  -0.000051  -0.002229
   89  H  4 XX    0.004243   0.001205   0.000009   0.000199  -0.003544
   90  H  4 YY   -0.002101  -0.000596   0.000002  -0.000684   0.001377
   91  H  4 ZZ   -0.002142  -0.000610  -0.000011   0.000485   0.002168
   92  H  4 XY    0.000495  -0.001741  -0.000142   0.000003  -0.005889
   93  H  4 XZ   -0.000030   0.000092  -0.002652   0.000005   0.000367
   94  H  4 YZ   -0.000005   0.000006  -0.000001   0.000072   0.000001

                     21
                    0.0294
                     A   
    1  AS 1  S    0.000047
    2  AS 1  S    0.000325
    3  AS 1  S    0.001464
    4  AS 1  S    0.004033
    5  AS 1  S    0.001680
    6  AS 1  S   -0.000418
    7  AS 1  X    0.013683
    8  AS 1  Y   -0.003836
    9  AS 1  Z    0.000151
   10  AS 1  X    0.184781
   11  AS 1  Y   -0.051808
   12  AS 1  Z    0.002044
   13  AS 1  X    0.943403
   14  AS 1  Y   -0.264580
   15  AS 1  Z    0.010434
   16  AS 1  X    0.254116
   17  AS 1  Y   -0.071275
   18  AS 1  Z    0.002811
   19  AS 1  X    0.203545
   20  AS 1  Y   -0.057143
   21  AS 1  Z    0.002252
   22  AS 1 XX    0.100457
   23  AS 1 YY   -0.099613
   24  AS 1 ZZ   -0.000844
   25  AS 1 XY    0.032495
   26  AS 1 XZ   -0.000265
   27  AS 1 YZ    0.005465
   28  AS 1 XX   -0.058262
   29  AS 1 YY    0.057756
   30  AS 1 ZZ    0.000506
   31  AS 1 XY   -0.018946
   32  AS 1 XZ   -0.000895
   33  AS 1 YZ   -0.002880
   34  AS 1 XX    0.039945
   35  AS 1 YY   -0.039930
   36  AS 1 ZZ   -0.000016
   37  AS 1 XY    0.012716
   38  AS 1 XZ   -0.003020
   39  AS 1 YZ    0.003014
   40  AS 1 XXX  -0.006286
   41  AS 1 YYY   0.001686
   42  AS 1 ZZZ   0.000274
   43  AS 1 XXY   0.000769
   44  AS 1 XXZ  -0.000216
   45  AS 1 YYX  -0.002297
   46  AS 1 YYZ  -0.000152
   47  AS 1 ZZX   0.010730
   48  AS 1 ZZY  -0.003031
   49  AS 1 XYZ   0.000698
   50  H  2  S    0.189494
   51  H  2  S    0.544202
   52  H  2  S    0.050591
   53  H  2  X    0.008139
   54  H  2  Y   -0.004119
   55  H  2  Z    0.000272
   56  H  2  X    0.070604
   57  H  2  Y   -0.069026
   58  H  2  Z    0.003731
   59  H  2 XX    0.002795
   60  H  2 YY    0.002815
   61  H  2 ZZ   -0.005610
   62  H  2 XY   -0.008597
   63  H  2 XZ    0.000409
   64  H  2 YZ   -0.000570
   65  H  3  S    0.064718
   66  H  3  S    0.186496
   67  H  3  S    0.017806
   68  H  3  X    0.007271
   69  H  3  Y   -0.001190
   70  H  3  Z    0.000064
   71  H  3  X    0.048210
   72  H  3  Y    0.009901
   73  H  3  Z   -0.000615
   74  H  3 XX    0.004295
   75  H  3 YY   -0.002373
   76  H  3 ZZ   -0.001922
   77  H  3 XY    0.005183
   78  H  3 XZ   -0.000357
   79  H  3 YZ    0.000063
   80  H  4  S   -0.257954
   81  H  4  S   -0.738219
   82  H  4  S   -0.066211
   83  H  4  X    0.010549
   84  H  4  Y   -0.001944
   85  H  4  Z   -0.000052
   86  H  4  X    0.129139
   87  H  4  Y   -0.010353
   88  H  4  Z   -0.000393
   89  H  4 XX   -0.012633
   90  H  4 YY    0.004941
   91  H  4 ZZ    0.007691
   92  H  4 XY    0.001668
   93  H  4 XZ    0.000092
   94  H  4 YZ    0.000184

          ------------------------
          MCSCF OPTIMIZED ORBITALS
          ------------------------

                      1          2          3          4          5
                 -432.8955   -56.6209   -50.4654   -50.4653   -50.4653
                     A          A          A          A          A   
    1  AS 1  S    0.999999   0.000003   0.000000  -0.000000  -0.000000
    2  AS 1  S    0.000001   1.000103  -0.000013   0.000000   0.000000
    3  AS 1  S   -0.000004   0.000134   0.000002  -0.000000  -0.000000
    4  AS 1  S   -0.000005   0.000143   0.000001  -0.000001  -0.000001
    5  AS 1  S    0.000016  -0.000426  -0.000001  -0.000000  -0.000000
    6  AS 1  S    0.000005  -0.000140  -0.000001  -0.000000  -0.000000
    7  AS 1  X    0.000000  -0.000000   0.003717   0.398817   0.917050
    8  AS 1  Y    0.000000   0.000001   0.053511   0.915663  -0.398431
    9  AS 1  Z    0.000000   0.000013   0.998586  -0.050552   0.017937
   10  AS 1  X    0.000000   0.000000   0.000000  -0.000001  -0.000002
   11  AS 1  Y   -0.000000   0.000000   0.000000  -0.000002   0.000001
   12  AS 1  Z   -0.000000   0.000001   0.000001   0.000000  -0.000000
   13  AS 1  X    0.000000  -0.000000   0.000000  -0.000035  -0.000081
   14  AS 1  Y    0.000000   0.000000  -0.000000  -0.000080   0.000035
   15  AS 1  Z   -0.000000   0.000000  -0.000002   0.000004  -0.000002
   16  AS 1  X    0.000000  -0.000000  -0.000002  -0.000200  -0.000459
   17  AS 1  Y    0.000000  -0.000000  -0.000024  -0.000458   0.000199
   18  AS 1  Z    0.000000  -0.000000  -0.000446   0.000025  -0.000009
   19  AS 1  X    0.000000  -0.000000  -0.000000  -0.000036  -0.000082
   20  AS 1  Y    0.000000  -0.000000  -0.000004  -0.000082   0.000036
   21  AS 1  Z    0.000000  -0.000000  -0.000069   0.000005  -0.000002
   22  AS 1 XX    0.000000  -0.000001  -0.000001   0.000001   0.000002
   23  AS 1 YY    0.000000  -0.000001  -0.000001  -0.000001  -0.000002
   24  AS 1 ZZ   -0.000000   0.000001   0.000001  -0.000000   0.000000
   25  AS 1 XY    0.000000   0.000000   0.000000  -0.000002   0.000001
   26  AS 1 XZ   -0.000000   0.000000   0.000000   0.000000   0.000001
   27  AS 1 YZ   -0.000000   0.000000   0.000000   0.000001  -0.000000
   28  AS 1 XX    0.000000  -0.000002   0.000000  -0.000022  -0.000051
   29  AS 1 YY    0.000000  -0.000002   0.000000   0.000022   0.000051
   30  AS 1 ZZ   -0.000000   0.000004  -0.000000   0.000000   0.000000
   31  AS 1 XY   -0.000000   0.000000  -0.000000   0.000058  -0.000026
   32  AS 1 XZ   -0.000000   0.000000  -0.000000  -0.000003   0.000001
   33  AS 1 YZ   -0.000000   0.000000  -0.000000  -0.000002  -0.000003
   34  AS 1 XX    0.000000  -0.000002  -0.000000  -0.000006  -0.000014
   35  AS 1 YY    0.000000  -0.000002  -0.000000   0.000006   0.000014
   36  AS 1 ZZ   -0.000000   0.000004   0.000000   0.000000   0.000000
   37  AS 1 XY   -0.000000   0.000000  -0.000000   0.000016  -0.000007
   38  AS 1 XZ   -0.000000   0.000000   0.000000  -0.000001   0.000000
   39  AS 1 YZ   -0.000000   0.000000   0.000000  -0.000000  -0.000001
   40  AS 1 XXX   0.000000  -0.000006   0.000000  -0.000005  -0.000012
   41  AS 1 YYY   0.000000  -0.000000   0.000000  -0.000012   0.000005
   42  AS 1 ZZZ  -0.000000   0.000000  -0.000000  -0.000003   0.000001
   43  AS 1 XXY   0.000000  -0.000000   0.000000  -0.000005   0.000002
   44  AS 1 XXZ  -0.000000   0.000000   0.000000   0.000000  -0.000000
   45  AS 1 YYX  -0.000000   0.000008  -0.000000  -0.000002  -0.000005
   46  AS 1 YYZ   0.000000  -0.000000   0.000000   0.000003  -0.000001
   47  AS 1 ZZX  -0.000000   0.000000  -0.000000   0.000009   0.000021
   48  AS 1 ZZY  -0.000000   0.000000  -0.000000   0.000021  -0.000009
   49  AS 1 XYZ   0.000000  -0.000001   0.000000   0.000001   0.000001
   50  H  2  S   -0.000000   0.000006  -0.000000  -0.000008   0.000011
   51  H  2  S   -0.000000   0.000011  -0.000000   0.000041  -0.000056
   52  H  2  S   -0.000001   0.000029   0.000000   0.000028  -0.000038
   53  H  2  X   -0.000000   0.000002   0.000000   0.000005  -0.000007
   54  H  2  Y    0.000000  -0.000003   0.000000  -0.000009   0.000011
   55  H  2  Z   -0.000000   0.000000   0.000001   0.000000  -0.000001
   56  H  2  X   -0.000000   0.000004  -0.000000   0.000020  -0.000029
   57  H  2  Y    0.000000  -0.000008  -0.000000  -0.000037   0.000049
   58  H  2  Z   -0.000000   0.000000  -0.000005   0.000002  -0.000002
   59  H  2 XX    0.000000  -0.000001   0.000000  -0.000000   0.000005
   60  H  2 YY   -0.000000   0.000005  -0.000000   0.000013  -0.000023
   61  H  2 ZZ    0.000000  -0.000004   0.000000  -0.000013   0.000018
   62  H  2 XY    0.000000  -0.000006   0.000000  -0.000020   0.000024
   63  H  2 XZ   -0.000000   0.000000   0.000003   0.000001  -0.000001
   64  H  2 YZ    0.000000  -0.000000  -0.000005  -0.000001   0.000002
   65  H  3  S   -0.000000   0.000006  -0.000000   0.000014   0.000002
   66  H  3  S   -0.000000   0.000011  -0.000000  -0.000068  -0.000008
   67  H  3  S   -0.000001   0.000029   0.000000  -0.000047  -0.000005
   68  H  3  X   -0.000000   0.000002   0.000000  -0.000008  -0.000001
   69  H  3  Y   -0.000000   0.000003   0.000000  -0.000014  -0.000001
   70  H  3  Z    0.000000  -0.000000   0.000001   0.000001   0.000000
   71  H  3  X   -0.000000   0.000004  -0.000000  -0.000035  -0.000005
   72  H  3  Y   -0.000000   0.000007  -0.000000  -0.000061  -0.000006
   73  H  3  Z    0.000000  -0.000000  -0.000005   0.000004   0.000000
   74  H  3 XX    0.000000  -0.000001   0.000000   0.000004   0.000003
   75  H  3 YY   -0.000000   0.000005   0.000001  -0.000026  -0.000006
   76  H  3 ZZ    0.000000  -0.000004  -0.000001   0.000022   0.000002
   77  H  3 XY   -0.000000   0.000006   0.000000  -0.000031  -0.000001
   78  H  3 XZ    0.000000  -0.000000   0.000003   0.000002   0.000000
   79  H  3 YZ    0.000000  -0.000001   0.000005   0.000003   0.000001
   80  H  4  S   -0.000000   0.000006  -0.000000  -0.000006  -0.000013
   81  H  4  S   -0.000000   0.000012  -0.000000   0.000028   0.000064
   82  H  4  S   -0.000001   0.000029   0.000000   0.000019   0.000043
   83  H  4  X    0.000000  -0.000004  -0.000000  -0.000007  -0.000015
   84  H  4  Y    0.000000  -0.000000   0.000000  -0.000001   0.000000
   85  H  4  Z    0.000000  -0.000000   0.000001   0.000000   0.000000
   86  H  4  X    0.000000  -0.000009   0.000000  -0.000029  -0.000066
   87  H  4  Y    0.000000  -0.000000  -0.000000  -0.000002   0.000001
   88  H  4  Z    0.000000  -0.000000  -0.000005   0.000000   0.000000
   89  H  4 XX   -0.000000   0.000008   0.000000   0.000017   0.000038
   90  H  4 YY    0.000000  -0.000004  -0.000000  -0.000008  -0.000018
   91  H  4 ZZ    0.000000  -0.000004  -0.000000  -0.000009  -0.000020
   92  H  4 XY   -0.000000  -0.000000  -0.000000  -0.000004   0.000002
   93  H  4 XZ    0.000000  -0.000000  -0.000006   0.000000  -0.000000
   94  H  4 YZ   -0.000000   0.000000  -0.000000  -0.000000  -0.000000

                      6          7          8          9         10
                   -8.3449    -6.1997    -6.1997    -6.1963    -2.4337
                     A          A          A          A          A   
    1  AS 1  S   -0.000085  -0.000000  -0.000000  -0.000002   0.000000
    2  AS 1  S   -0.000608  -0.000003  -0.000002  -0.000017   0.000002
    3  AS 1  S    0.975261  -0.000019  -0.000010  -0.000138   0.000007
    4  AS 1  S   -0.001918  -0.000012  -0.000006  -0.000055  -0.000001
    5  AS 1  S    0.036268   0.000005   0.000002   0.000039  -0.000010
    6  AS 1  S    0.004129   0.000004   0.000002   0.000017  -0.000005
    7  AS 1  X   -0.000000  -0.000104  -0.000018   0.000000   0.000214
    8  AS 1  Y   -0.000000   0.000018  -0.000104   0.000002  -0.000021
    9  AS 1  Z   -0.000001  -0.000001   0.000006   0.000032   0.000000
   10  AS 1  X    0.000007   0.960082   0.166354   0.003928   0.001038
   11  AS 1  Y    0.000007  -0.166324   0.958676   0.052256  -0.000101
   12  AS 1  Z    0.000073   0.005050  -0.052090   0.974272   0.000001
   13  AS 1  X   -0.000003  -0.000981  -0.000170   0.000002   0.004618
   14  AS 1  Y   -0.000001   0.000170  -0.000980   0.000023  -0.000456
   15  AS 1  Z   -0.000009  -0.000005   0.000053   0.000431   0.000006
   16  AS 1  X    0.000002   0.047092   0.008160   0.000188  -0.001878
   17  AS 1  Y    0.000001  -0.008158   0.047026   0.002498   0.000183
   18  AS 1  Z    0.000015   0.000248  -0.002555   0.046574  -0.000002
   19  AS 1  X    0.000002   0.002035   0.000353   0.000007  -0.002545
   20  AS 1  Y    0.000000  -0.000353   0.002035   0.000088   0.000251
   21  AS 1  Z    0.000005   0.000011  -0.000111   0.001650  -0.000003
   22  AS 1 XX    0.000324   0.000604   0.000104  -0.000021   0.833345
   23  AS 1 YY    0.000319  -0.000599  -0.000098  -0.000021  -0.830595
   24  AS 1 ZZ   -0.000643  -0.000005  -0.000006   0.000043  -0.002750
   25  AS 1 XY   -0.000001   0.000122  -0.000683   0.000000   0.094868
   26  AS 1 XZ   -0.000004   0.000033   0.000043   0.000003  -0.005604
   27  AS 1 YZ   -0.000060   0.000029   0.000051   0.000005   0.050704
   28  AS 1 XX    0.000050  -0.000324  -0.000057  -0.000004   0.072953
   29  AS 1 YY    0.000051   0.000322   0.000056  -0.000004  -0.072711
   30  AS 1 ZZ   -0.000101   0.000002   0.000001   0.000007  -0.000242
   31  AS 1 XY    0.000000  -0.000064   0.000374   0.000000   0.008305
   32  AS 1 XZ   -0.000001   0.000008  -0.000019   0.000002  -0.000492
   33  AS 1 YZ   -0.000009  -0.000020  -0.000002   0.000001   0.004439
   34  AS 1 XX   -0.000015  -0.000212  -0.000037   0.000000   0.000451
   35  AS 1 YY   -0.000015   0.000211   0.000036   0.000000  -0.000446
   36  AS 1 ZZ    0.000030   0.000001   0.000001  -0.000001  -0.000006
   37  AS 1 XY    0.000000  -0.000042   0.000242  -0.000000   0.000052
   38  AS 1 XZ    0.000000  -0.000003  -0.000014  -0.000001   0.000006
   39  AS 1 YZ    0.000003  -0.000012  -0.000009  -0.000000   0.000026
   40  AS 1 XXX   0.000049   0.000052   0.000009  -0.000001   0.000443
   41  AS 1 YYY   0.000000  -0.000009   0.000052   0.000017  -0.000048
   42  AS 1 ZZZ  -0.000000  -0.000001   0.000011  -0.000213  -0.000002
   43  AS 1 XXY   0.000000  -0.000005   0.000024   0.000008  -0.000016
   44  AS 1 XXZ  -0.000000  -0.000002  -0.000002   0.000144   0.000019
   45  AS 1 YYX  -0.000066   0.000024   0.000004   0.000003   0.000186
   46  AS 1 YYZ   0.000001   0.000004  -0.000014   0.000142  -0.000016
   47  AS 1 ZZX  -0.000000  -0.000094  -0.000016  -0.000002  -0.000780
   48  AS 1 ZZY  -0.000000   0.000016  -0.000093  -0.000031   0.000080
   49  AS 1 XYZ   0.000004  -0.000007  -0.000000  -0.000000  -0.000057
   50  H  2  S    0.000002  -0.000274   0.000329   0.000001  -0.003215
   51  H  2  S    0.000332  -0.001270   0.001526   0.000010  -0.001566
   52  H  2  S   -0.000675   0.000444  -0.000534  -0.000004  -0.000998
   53  H  2  X   -0.000004   0.000005   0.000027   0.000000  -0.000783
   54  H  2  Y    0.000007   0.000028  -0.000015   0.000000   0.000630
   55  H  2  Z   -0.000000  -0.000001   0.000000   0.000011  -0.000028
   56  H  2  X    0.000006  -0.000088   0.000251   0.000003  -0.000676
   57  H  2  Y   -0.000009   0.000317  -0.000299   0.000003  -0.000472
   58  H  2  Z    0.000001  -0.000016   0.000014   0.000124   0.000033
   59  H  2 XX   -0.000004   0.000008  -0.000051  -0.000000  -0.000097
   60  H  2 YY    0.000025  -0.000066   0.000121   0.000003  -0.000182
   61  H  2 ZZ   -0.000021   0.000058  -0.000069  -0.000003   0.000279
   62  H  2 XY   -0.000028   0.000128  -0.000126  -0.000002   0.000587
   63  H  2 XZ    0.000001  -0.000006   0.000006  -0.000018  -0.000024
   64  H  2 YZ   -0.000003   0.000007  -0.000010   0.000030   0.000023
   65  H  3  S    0.000002  -0.000147  -0.000401   0.000001  -0.002274
   66  H  3  S    0.000332  -0.000682  -0.001862   0.000010  -0.001112
   67  H  3  S   -0.000675   0.000238   0.000652  -0.000004  -0.000705
   68  H  3  X   -0.000004   0.000014  -0.000023   0.000000  -0.000682
   69  H  3  Y   -0.000007  -0.000021  -0.000022   0.000001  -0.000370
   70  H  3  Z    0.000001   0.000001   0.000002   0.000011   0.000025
   71  H  3  X    0.000006   0.000001  -0.000266   0.000003  -0.000774
   72  H  3  Y    0.000009  -0.000198  -0.000388   0.000010   0.000503
   73  H  3  Z   -0.000001   0.000011   0.000023   0.000123  -0.000020
   74  H  3 XX   -0.000004  -0.000010   0.000051  -0.000000  -0.000146
   75  H  3 YY    0.000024  -0.000021  -0.000134  -0.000002  -0.000051
   76  H  3 ZZ   -0.000020   0.000031   0.000083   0.000003   0.000197
   77  H  3 XY    0.000028  -0.000078  -0.000160  -0.000000  -0.000466
   78  H  3 XZ   -0.000002   0.000005   0.000009  -0.000018   0.000031
   79  H  3 YZ   -0.000003   0.000004   0.000015  -0.000030   0.000019
   80  H  4  S    0.000002   0.000423   0.000073   0.000001   0.005505
   81  H  4  S    0.000334   0.001963   0.000341   0.000010   0.002650
   82  H  4  S   -0.000678  -0.000685  -0.000119  -0.000005   0.001705
   83  H  4  X    0.000007  -0.000036  -0.000006  -0.000000  -0.001609
   84  H  4  Y    0.000000  -0.000004   0.000024   0.000001   0.000044
   85  H  4  Z    0.000000  -0.000000  -0.000001   0.000011  -0.000001
   86  H  4  X   -0.000011  -0.000494  -0.000086  -0.000004   0.000131
   87  H  4  Y   -0.000000  -0.000018   0.000106   0.000007   0.000098
   88  H  4  Z    0.000000   0.000002  -0.000005   0.000124  -0.000014
   89  H  4 XX    0.000040   0.000224   0.000039   0.000001   0.001032
   90  H  4 YY   -0.000018  -0.000134  -0.000023  -0.000001  -0.000551
   91  H  4 ZZ   -0.000021  -0.000091  -0.000016  -0.000000  -0.000481
   92  H  4 XY    0.000000  -0.000006   0.000035   0.000002  -0.000030
   93  H  4 XZ   -0.000000   0.000000  -0.000002   0.000035   0.000003
   94  H  4 YZ   -0.000000   0.000003   0.000001   0.000000   0.000004

[...]
       54    0.021627   -0.021627  -2+200+

 ---------------------------------------
      - DIABATIC STATES IN CMO -        
 ---------------------------------------

 State #    1  Energy =   -2235.921404802

      Det      Coef        Coefp    Occupancy (Ignoring core)
      ---      ----        ----    --------- --------- -----
        1   -0.975857    0.975857  222+000
      107    0.073533   -0.073533  +22-+00
      143    0.061217    0.061217  220+200
      179    0.060576    0.060576  202+200
      393    0.058677    0.058677  202+020
      717    0.058417    0.058417  220+002
      211   -0.038270   -0.038270  +22+-00
       36    0.036275    0.036275  22+2000
        5   -0.035264   -0.035264  -22++00
       76    0.033295    0.033295  2+2-0+0
       51    0.033260   -0.033260  22+-00+
      218    0.032406   -0.032406  +-2+-+0
      227    0.032346    0.032346  +2-+-0+
      215    0.029797    0.029797  022+200
      739    0.028770    0.028770  202++0-
      703   -0.028720   -0.028720  220++0-
      388   -0.028654   -0.028654  2+-++-0
      354    0.028628   -0.028628  2-+++-0
      390    0.028280   -0.028280  -+2++-0
      705    0.028226    0.028226  -2+++0-
      193   -0.026893    0.026893  202+-0+
      157    0.026866   -0.026866  220+-0+
      148   -0.026771   -0.026771  2-++-+0
      182    0.026732   -0.026732  2+-+-+0
      368   -0.026075   -0.026075  2-++0-+
      742   -0.026059   -0.026059  2+-+0+-
        8   -0.026033    0.026033  2-2+0+0
       17   -0.025921   -0.025921  22-+00+
      424   -0.025629   -0.025629  +-2++-0
      773   -0.025566    0.025566  +2-++0-
      184   -0.024169   -0.024169  -+2+-+0
      159   -0.024094    0.024094  -2++-0+
      753    0.022631    0.022631  202+002
      357    0.022365    0.022365  220+020
      789    0.021557    0.021557  022+002
      429    0.021554    0.021554  022+020

 State #    2  Energy =   -2235.729160685

      Det      Coef        Coefp    Occupancy (Ignoring core)
      ---      ----        ----    --------- --------- -----
        2   -0.951769    0.951769  2220+00
      106   -0.172314   -0.172314  +222000
      156   -0.080942    0.080942  22+0-0+
      181   -0.080017   -0.080017  2+20-+0
      702    0.077830    0.077830  22+0+0-
      387    0.076902   -0.076902  2+20+-0
      212    0.064176    0.064176  +220200
      396    0.060624    0.060624  2020+20
      720    0.060413    0.060413  2200+02
      110    0.057444   -0.057444  0222+00
      741    0.046990   -0.046990  2+200+-
      401   -0.046917   -0.046917  2+200-+
      356    0.046709    0.046709  22+0020
      716   -0.046484   -0.046484  22+0002
       38    0.031273   -0.031273  2202+00
       74    0.031261   -0.031261  2022+00
      756    0.026214    0.026214  2020+02
      360    0.026002    0.026002  2200+20
      371   -0.025607   -0.025607  2-+0+-+
      745   -0.025594   -0.025594  2+-0++-
      196   -0.025051    0.025051  202020+
      160    0.025042   -0.025042  220020+
      151   -0.024990   -0.024990  2-+02+0
      185    0.024916   -0.024916  2+-02+0
      221    0.021937   -0.021937  +-202+0
      230    0.021896    0.021896  +2-020+
      187   -0.021004   -0.021004  -+202+0
      162   -0.020953    0.020953  -2+020+

 State #    3  Energy =   -2235.693508470

      Det      Coef        Coefp    Occupancy (Ignoring core)
      ---      ----        ----    --------- --------- -----
       36    0.893375    0.893375  22+2000
       71   -0.321914    0.321914  2+22000
      142   -0.113247   -0.113247  22+0200
       16    0.105505   -0.105505  222000+
       52   -0.084526    0.084526  220200+
       73   -0.082020    0.082020  2+-2+00
       39    0.081972    0.081972  2-+2+00
      249   -0.065050    0.065050  20+2200
       38    0.061525   -0.061525  2202+00
       74   -0.061279    0.061279  2022+00
      108    0.052909    0.052909  +2-2+00
        6   -0.052882    0.052882  22200+0
      463   -0.048263    0.048263  20+2020
      177    0.040752   -0.040752  2+20200
        1    0.038352   -0.038352  222+000
       40   -0.037421    0.037421  -2+2+00
       88   -0.037279    0.037279  202200+
      123   -0.036877    0.036877  +-2200+
      112   -0.036627   -0.036627  +2-20+0
       78    0.035808   -0.035808  20220+0
      460   -0.035445   -0.035445  -++2+-0
      113    0.035042   -0.035042  +-220+0
      122   -0.034897   -0.034897  +2-200+
       77    0.034261   -0.034261  2+-20+0
      288   -0.030189   -0.030189  +-+2-+0
      494    0.026957   -0.026957  +-+2+-0
       42    0.025275   -0.025275  22020+0
      297   -0.024429    0.024429  +202-0+
      285   -0.024237    0.024237  02+2200
      859   -0.023942    0.023942  02+2002
      499   -0.023868    0.023868  02+2020
      248    0.023515   -0.023515  2+02200
      254    0.022952   -0.022952  -++2-+0
      823   -0.022838    0.022838  20+2002
      456   -0.021664   -0.021664  2++20-0
      876    0.021184    0.021184  ++2200-
      822    0.021064   -0.021064  2+02002
      491    0.021041   -0.021041  +2+20-0
      843    0.020536    0.020536  +202+0-
      526   -0.020116   -0.020116  ++220-0
      841    0.020086   -0.020086  +2+200-
      808   -0.020011    0.020011  2+02+0-

 State #    4  Energy =   -2235.693102684

      Det      Coef        Coefp    Occupancy (Ignoring core)
      ---      ----        ----    --------- --------- -----
       71    0.894215   -0.894215  2+22000
       36    0.322038    0.322038  22+2000
      177   -0.112936    0.112936  2+20200
        6    0.105298   -0.105298  22200+0
       78   -0.084869    0.084869  20220+0
       38    0.082286   -0.082286  2202+00
       74   -0.081177    0.081177  2022+00
      248   -0.065717    0.065717  2+02200
       73    0.061079   -0.061079  2+-2+00
       39   -0.061077   -0.061077  2-+2+00
       16    0.052929   -0.052929  222000+
      109    0.052525   -0.052525  +-22+00
      822   -0.048057    0.048057  2+02002
      142   -0.040727   -0.040727  22+0200
       75   -0.037375   -0.037375  -+22+00
      113    0.037214   -0.037214  +-220+0
       42   -0.036799    0.036799  22020+0
      122   -0.036756   -0.036756  +2-200+
       52   -0.035893    0.035893  220200+
      123    0.035403   -0.035403  +-2200+
      810    0.035389    0.035389  -++2+0-
      112    0.035301    0.035301  +2-20+0
       53   -0.034720   -0.034720  2-+200+
      332    0.030179   -0.030179  ++-2-0+
      878   -0.026911   -0.026911  ++-2+0-
       88   -0.025233    0.025233  202200+
      323   -0.024447    0.024447  +022-+0
      320   -0.024172   -0.024172  0+22200
      534   -0.024001   -0.024001  0+22020
      894   -0.023929   -0.023929  0+22002
      249   -0.023592    0.023592  20+2200
      264   -0.022896    0.022896  -++2-0+
      462   -0.022609    0.022609  2+02020
      806    0.021520    0.021520  2++200-
      526   -0.021251   -0.021251  ++220-0
      841    0.021160   -0.021160  +2+200-
      463   -0.021019    0.021019  20+2020
      529    0.020558    0.020558  +022+-0
      876   -0.020279   -0.020279  ++2200-
      491   -0.020236    0.020236  +2+20-0
      809   -0.020035    0.020035  20+2+0-

 ---------------------------------------
    -DIABATIC STATES IN PROTOTYPES-     
 ---------------------------------------

     STATE:    1
 Group Ref#    Coefficients
     1    1    0.998227
     2    2    0.000006
     3    3    0.000163
     4    4    0.000001

WEIGHT OF LISTED PROTOTYPES:   99.65%

     STATE:    2
 Group Ref#    Coefficients
     1    1    0.000006
     2    2    0.995963
     3    3   -0.000293
     4    4   -0.000422

WEIGHT OF LISTED PROTOTYPES:   99.19%

     STATE:    3
 Group Ref#    Coefficients
     1    1    0.000163
     2    2   -0.000294
     3    3    0.994906
     4    4   -0.000177

WEIGHT OF LISTED PROTOTYPES:   98.98%

     STATE:    4
 Group Ref#    Coefficients
     1    1    0.000001
     2    2   -0.000422
     3    3   -0.000177
     4    4    0.995458

WEIGHT OF LISTED PROTOTYPES:   99.09%

     DIRECT MAX. DIABATIZATION FINISHED    
 CPU     0: STEP CPU TIME=     0.57 TOTAL CPU TIME=        315.5 (      5.3 MIN)
 TOTAL WALL CLOCK TIME=        331.5 SECONDS, CPU UTILIZATION IS    95.18%

DIABATS FOR SPIN-ORBIT CALCULATION ARE READY

TRANSITION DIPOLES BETWEEN ADIABATS (in A.U.):

STATE PAIR      X         Y         Z
    1    1  0.000829  0.000024  0.022928
    2    1  0.001916  0.024968  0.465135
    2    2 -0.004409 -0.000482  0.034826
    3    1 -0.000822 -0.001363  0.001845
    3    2 -0.081518 -0.145382  0.008148
    3    3  0.214722  0.357889 -0.008669
    4    1  0.001452 -0.000917 -0.001653
    4    2  0.143087 -0.082250  0.003809
    4    3  0.358909 -0.213857  0.010025
    4    4 -0.213791 -0.358778  0.031494


TRANSITION DIPOLES BETWEEN DIABATS (in A.U.):

STATE PAIR      X         Y         Z
    1    1  0.001510  0.000629  0.028438
    2    1  0.002359  0.031456  0.464466
    2    2 -0.005482 -0.001128  0.029272
    3    1  0.016384  0.003607 -0.001131
    3    2 -0.003000  0.164569 -0.027118
    3    3  0.417588 -0.014041  0.010505
    4    1  0.001700  0.016444 -0.001820
    4    2  0.165941  0.002430 -0.002444
    4    3  0.013790  0.417273 -0.022398
    4    4 -0.416266  0.013192  0.012365

TRANSITION DIPOLES BETWEEN DIRECT MAX. DIABATS (in A.U.):

STATE PAIR      X         Y         Z
    1    1  0.001510  0.000629  0.028438
    2    1  0.002359  0.031456  0.464466
    2    2 -0.005482 -0.001128  0.029272
    3    1  0.016384  0.003607 -0.001132
    3    2 -0.003000  0.164569 -0.027118
    3    3  0.417588 -0.014041  0.010505
    4    1  0.001700  0.016444 -0.001820
    4    2  0.165941  0.002430 -0.002444
    4    3  0.013790  0.417273 -0.022398
    4    4 -0.416266  0.013192  0.012365
 No $TRANST Group Found.
 Quit without doing spin-orbit coupling
 ..... DONE WITH MP2 ENERGY .....
 CPU     0: STEP CPU TIME=     0.00 TOTAL CPU TIME=        315.5 (      5.3 MIN)
 TOTAL WALL CLOCK TIME=        331.5 SECONDS, CPU UTILIZATION IS    95.18%
            250000000  WORDS OF DYNAMIC MEMORY USED
 EXECUTION OF GAMESS TERMINATED NORMALLY Mon Dec  4 10:34:19 2023
 DDI: 14063448 bytes (13.4 MB / 1 MWords) used by master data server.
Note: The following floating-point exceptions are signalling: IEEE_DENORMAL

 ----------------------------------------
 CPU timing information for all processes
 ========================================
 0: 314.906 + 0.573 = 315.480
 1: 315.126 + 0.504 = 315.631
 ----------------------------------------
Note: The following floating-point exceptions are signalling: IEEE_DENORMAL
 ddikick.x: exited gracefully.
unset echo
----- accounting info -----
Files used on the master node io002 were:
-rw-r--r-- 1 bjb2chen nooijen   144636 Dec  4 10:28 /home/bjb2chen/gmsscr//AsH3cat_cct_gmcpt_C1_3st_diab_mode3_+0.05_mode1_+0.05.F05
-rw-r--r-- 1 bjb2chen nooijen  4706344 Dec  4 10:33 /home/bjb2chen/gmsscr//AsH3cat_cct_gmcpt_C1_3st_diab_mode3_+0.05_mode1_+0.05.F09
-rw-r--r-- 1 bjb2chen nooijen  7020624 Dec  4 10:32 /home/bjb2chen/gmsscr//AsH3cat_cct_gmcpt_C1_3st_diab_mode3_+0.05_mode1_+0.05.F09.001
-rw-r--r-- 1 bjb2chen nooijen  3010240 Dec  4 10:34 /home/bjb2chen/gmsscr//AsH3cat_cct_gmcpt_C1_3st_diab_mode3_+0.05_mode1_+0.05.F10
-rw-r--r-- 1 bjb2chen nooijen  1243928 Dec  4 10:32 /home/bjb2chen/gmsscr//AsH3cat_cct_gmcpt_C1_3st_diab_mode3_+0.05_mode1_+0.05.F13
-rw-r--r-- 1 bjb2chen nooijen  1243928 Dec  4 10:32 /home/bjb2chen/gmsscr//AsH3cat_cct_gmcpt_C1_3st_diab_mode3_+0.05_mode1_+0.05.F13.001
-rw-r--r-- 1 bjb2chen nooijen   181872 Dec  4 10:34 /home/bjb2chen/gmsscr//AsH3cat_cct_gmcpt_C1_3st_diab_mode3_+0.05_mode1_+0.05.F15
-rw-r--r-- 1 bjb2chen nooijen        0 Dec  4 10:28 /home/bjb2chen/gmsscr//AsH3cat_cct_gmcpt_C1_3st_diab_mode3_+0.05_mode1_+0.05.F16
-rw-r--r-- 1 bjb2chen nooijen     9808 Dec  4 10:32 /home/bjb2chen/gmsscr//AsH3cat_cct_gmcpt_C1_3st_diab_mode3_+0.05_mode1_+0.05.F70
-rw-r--r-- 1 bjb2chen nooijen     9808 Dec  4 10:32 /home/bjb2chen/gmsscr//AsH3cat_cct_gmcpt_C1_3st_diab_mode3_+0.05_mode1_+0.05.F70.001
-rw-r--r-- 1 bjb2chen nooijen     9808 Dec  4 10:32 /home/bjb2chen/gmsscr//AsH3cat_cct_gmcpt_C1_3st_diab_mode3_+0.05_mode1_+0.05.F71
-rw-r--r-- 1 bjb2chen nooijen     9808 Dec  4 10:32 /home/bjb2chen/gmsscr//AsH3cat_cct_gmcpt_C1_3st_diab_mode3_+0.05_mode1_+0.05.F71.001
-rw-r--r-- 1 bjb2chen nooijen    19608 Dec  4 10:32 /home/bjb2chen/gmsscr//AsH3cat_cct_gmcpt_C1_3st_diab_mode3_+0.05_mode1_+0.05.F72
-rw-r--r-- 1 bjb2chen nooijen    19608 Dec  4 10:32 /home/bjb2chen/gmsscr//AsH3cat_cct_gmcpt_C1_3st_diab_mode3_+0.05_mode1_+0.05.F72.001
-rw-r--r-- 1 bjb2chen nooijen    19608 Dec  4 10:32 /home/bjb2chen/gmsscr//AsH3cat_cct_gmcpt_C1_3st_diab_mode3_+0.05_mode1_+0.05.F73
-rw-r--r-- 1 bjb2chen nooijen    19608 Dec  4 10:32 /home/bjb2chen/gmsscr//AsH3cat_cct_gmcpt_C1_3st_diab_mode3_+0.05_mode1_+0.05.F73.001
-rw-r--r-- 1 bjb2chen nooijen   961208 Dec  4 10:33 /home/bjb2chen/gmsscr//AsH3cat_cct_gmcpt_C1_3st_diab_mode3_+0.05_mode1_+0.05.F74
-rw-r--r-- 1 bjb2chen nooijen   959640 Dec  4 10:33 /home/bjb2chen/gmsscr//AsH3cat_cct_gmcpt_C1_3st_diab_mode3_+0.05_mode1_+0.05.F74.001
-rw-r--r-- 1 bjb2chen nooijen        0 Dec  4 10:28 /home/bjb2chen/gmsscr//AsH3cat_cct_gmcpt_C1_3st_diab_mode3_+0.05_mode1_+0.05.F75
-rw-r--r-- 1 bjb2chen nooijen        0 Dec  4 10:28 /home/bjb2chen/gmsscr//AsH3cat_cct_gmcpt_C1_3st_diab_mode3_+0.05_mode1_+0.05.F75.001
-rw-r--r-- 1 bjb2chen nooijen    78456 Dec  4 10:32 /home/bjb2chen/gmsscr//AsH3cat_cct_gmcpt_C1_3st_diab_mode3_+0.05_mode1_+0.05.F76
-rw-r--r-- 1 bjb2chen nooijen    78456 Dec  4 10:32 /home/bjb2chen/gmsscr//AsH3cat_cct_gmcpt_C1_3st_diab_mode3_+0.05_mode1_+0.05.F76.001
-rw-r--r-- 1 bjb2chen nooijen        0 Dec  4 10:28 /home/bjb2chen/gmsscr//AsH3cat_cct_gmcpt_C1_3st_diab_mode3_+0.05_mode1_+0.05.F77
-rw-r--r-- 1 bjb2chen nooijen        0 Dec  4 10:28 /home/bjb2chen/gmsscr//AsH3cat_cct_gmcpt_C1_3st_diab_mode3_+0.05_mode1_+0.05.F77.001
-rw-r--r-- 1 bjb2chen nooijen     6408 Dec  4 10:33 /home/bjb2chen/gmsscr//AsH3cat_cct_gmcpt_C1_3st_diab_mode3_+0.05_mode1_+0.05.F78
-rw-r--r-- 1 bjb2chen nooijen     6408 Dec  4 10:33 /home/bjb2chen/gmsscr//AsH3cat_cct_gmcpt_C1_3st_diab_mode3_+0.05_mode1_+0.05.F78.001
-rw-r--r-- 1 bjb2chen nooijen    49008 Dec  4 10:33 /home/bjb2chen/gmsscr//AsH3cat_cct_gmcpt_C1_3st_diab_mode3_+0.05_mode1_+0.05.F79
-rw-r--r-- 1 bjb2chen nooijen    49008 Dec  4 10:33 /home/bjb2chen/gmsscr//AsH3cat_cct_gmcpt_C1_3st_diab_mode3_+0.05_mode1_+0.05.F79.001
-rw-r--r-- 1 bjb2chen nooijen      168 Dec  4 10:32 /home/bjb2chen/gmsscr//AsH3cat_cct_gmcpt_C1_3st_diab_mode3_+0.05_mode1_+0.05.F80
-rw-r--r-- 1 bjb2chen nooijen      168 Dec  4 10:32 /home/bjb2chen/gmsscr//AsH3cat_cct_gmcpt_C1_3st_diab_mode3_+0.05_mode1_+0.05.F80.001
-rw-r--r-- 1 bjb2chen nooijen   102416 Dec  4 10:33 /home/bjb2chen/gmsscr//AsH3cat_cct_gmcpt_C1_3st_diab_mode3_+0.05_mode1_+0.05.F81
-rw-r--r-- 1 bjb2chen nooijen   102416 Dec  4 10:33 /home/bjb2chen/gmsscr//AsH3cat_cct_gmcpt_C1_3st_diab_mode3_+0.05_mode1_+0.05.F81.001
-rw-r--r-- 1 bjb2chen nooijen      656 Dec  4 10:33 /home/bjb2chen/gmsscr//AsH3cat_cct_gmcpt_C1_3st_diab_mode3_+0.05_mode1_+0.05.F82
-rw-r--r-- 1 bjb2chen nooijen      656 Dec  4 10:33 /home/bjb2chen/gmsscr//AsH3cat_cct_gmcpt_C1_3st_diab_mode3_+0.05_mode1_+0.05.F82.001
-rw-r--r-- 1 bjb2chen nooijen    19216 Dec  4 10:33 /home/bjb2chen/gmsscr//AsH3cat_cct_gmcpt_C1_3st_diab_mode3_+0.05_mode1_+0.05.F83
-rw-r--r-- 1 bjb2chen nooijen    19216 Dec  4 10:33 /home/bjb2chen/gmsscr//AsH3cat_cct_gmcpt_C1_3st_diab_mode3_+0.05_mode1_+0.05.F83.001
-rw-r--r-- 1 bjb2chen nooijen   327696 Dec  4 10:33 /home/bjb2chen/gmsscr//AsH3cat_cct_gmcpt_C1_3st_diab_mode3_+0.05_mode1_+0.05.F84
-rw-r--r-- 1 bjb2chen nooijen   327696 Dec  4 10:33 /home/bjb2chen/gmsscr//AsH3cat_cct_gmcpt_C1_3st_diab_mode3_+0.05_mode1_+0.05.F84.001
-rw-r--r-- 1 bjb2chen nooijen  4058984 Dec  4 10:33 /home/bjb2chen/gmsscr//AsH3cat_cct_gmcpt_C1_3st_diab_mode3_+0.05_mode1_+0.05.F85
-rw-r--r-- 1 bjb2chen nooijen  4058984 Dec  4 10:33 /home/bjb2chen/gmsscr//AsH3cat_cct_gmcpt_C1_3st_diab_mode3_+0.05_mode1_+0.05.F85.001
-rw-r--r-- 1 bjb2chen nooijen 16707232 Dec  4 10:33 /home/bjb2chen/gmsscr//AsH3cat_cct_gmcpt_C1_3st_diab_mode3_+0.05_mode1_+0.05.F86
-rw-r--r-- 1 bjb2chen nooijen 16657504 Dec  4 10:33 /home/bjb2chen/gmsscr//AsH3cat_cct_gmcpt_C1_3st_diab_mode3_+0.05_mode1_+0.05.F86.001
-rw-r--r-- 1 bjb2chen nooijen     1160 Dec  4 10:34 /home/bjb2chen/gmsscr//AsH3cat_cct_gmcpt_C1_3st_diab_mode3_+0.05_mode1_+0.05.F87
-rw-r--r-- 1 bjb2chen nooijen     1160 Dec  4 10:34 /home/bjb2chen/gmsscr//AsH3cat_cct_gmcpt_C1_3st_diab_mode3_+0.05_mode1_+0.05.F87.001
-rw-r--r-- 1 bjb2chen nooijen    30304 Dec  4 10:34 /home/bjb2chen/gmsscr//AsH3cat_cct_gmcpt_C1_3st_diab_mode3_+0.05_mode1_+0.05.F88
-rw-r--r-- 1 bjb2chen nooijen    30304 Dec  4 10:34 /home/bjb2chen/gmsscr//AsH3cat_cct_gmcpt_C1_3st_diab_mode3_+0.05_mode1_+0.05.F88.001
-rw-r--r-- 1 bjb2chen nooijen      648 Dec  4 10:33 /home/bjb2chen/gmsscr//AsH3cat_cct_gmcpt_C1_3st_diab_mode3_+0.05_mode1_+0.05.F89
-rw-r--r-- 1 bjb2chen nooijen      648 Dec  4 10:33 /home/bjb2chen/gmsscr//AsH3cat_cct_gmcpt_C1_3st_diab_mode3_+0.05_mode1_+0.05.F89.001
-rw-r--r-- 1 bjb2chen nooijen        0 Dec  4 10:28 /home/bjb2chen/gmsscr//AsH3cat_cct_gmcpt_C1_3st_diab_mode3_+0.05_mode1_+0.05.F90
-rw-r--r-- 1 bjb2chen nooijen        0 Dec  4 10:28 /home/bjb2chen/gmsscr//AsH3cat_cct_gmcpt_C1_3st_diab_mode3_+0.05_mode1_+0.05.F90.001
-rw-r--r-- 1 bjb2chen nooijen    13760 Dec  4 10:34 /home/bjb2chen/gmsscr//AsH3cat_cct_gmcpt_C1_3st_diab_mode3_+0.05_mode1_+0.05.F91
-rw-r--r-- 1 bjb2chen nooijen    13760 Dec  4 10:34 /home/bjb2chen/gmsscr//AsH3cat_cct_gmcpt_C1_3st_diab_mode3_+0.05_mode1_+0.05.F91.001
-rw-r--r-- 1 bjb2chen nooijen    22776 Dec  4 10:33 /home/bjb2chen/gmsscr//AsH3cat_cct_gmcpt_C1_3st_diab_mode3_+0.05_mode1_+0.05.F92
-rw-r--r-- 1 bjb2chen nooijen    22776 Dec  4 10:33 /home/bjb2chen/gmsscr//AsH3cat_cct_gmcpt_C1_3st_diab_mode3_+0.05_mode1_+0.05.F92.001
-rw-r--r-- 1 bjb2chen nooijen    23168 Dec  4 10:33 /home/bjb2chen/gmsscr//AsH3cat_cct_gmcpt_C1_3st_diab_mode3_+0.05_mode1_+0.05.F93
-rw-r--r-- 1 bjb2chen nooijen    23168 Dec  4 10:33 /home/bjb2chen/gmsscr//AsH3cat_cct_gmcpt_C1_3st_diab_mode3_+0.05_mode1_+0.05.F93.001
-rw-r--r-- 1 bjb2chen nooijen    22776 Dec  4 10:33 /home/bjb2chen/gmsscr//AsH3cat_cct_gmcpt_C1_3st_diab_mode3_+0.05_mode1_+0.05.F94
-rw-r--r-- 1 bjb2chen nooijen    22776 Dec  4 10:33 /home/bjb2chen/gmsscr//AsH3cat_cct_gmcpt_C1_3st_diab_mode3_+0.05_mode1_+0.05.F94.001
-rw-r--r-- 1 bjb2chen nooijen    13760 Dec  4 10:33 /home/bjb2chen/gmsscr//AsH3cat_cct_gmcpt_C1_3st_diab_mode3_+0.05_mode1_+0.05.F95
-rw-r--r-- 1 bjb2chen nooijen    13760 Dec  4 10:33 /home/bjb2chen/gmsscr//AsH3cat_cct_gmcpt_C1_3st_diab_mode3_+0.05_mode1_+0.05.F95.001
-rw-r--r-- 1 bjb2chen nooijen    39248 Dec  4 10:34 /home/bjb2chen/gmsscr//AsH3cat_cct_gmcpt_C1_3st_diab_mode3_+0.05_mode1_+0.05.F96
-rw-r--r-- 1 bjb2chen nooijen    39248 Dec  4 10:34 /home/bjb2chen/gmsscr//AsH3cat_cct_gmcpt_C1_3st_diab_mode3_+0.05_mode1_+0.05.F96.001
-rw-r--r-- 1 bjb2chen nooijen     1184 Dec  4 10:33 /home/bjb2chen/gmsscr//AsH3cat_cct_gmcpt_C1_3st_diab_mode3_+0.05_mode1_+0.05.F97
-rw-r--r-- 1 bjb2chen nooijen     1184 Dec  4 10:33 /home/bjb2chen/gmsscr//AsH3cat_cct_gmcpt_C1_3st_diab_mode3_+0.05_mode1_+0.05.F97.001
-rw-r--r-- 1 bjb2chen nooijen     9808 Dec  4 10:32 /home/bjb2chen/gmsscr//AsH3cat_cct_gmcpt_C1_3st_diab_mode3_+0.05_mode1_+0.05.F98
-rw-r--r-- 1 bjb2chen nooijen     9808 Dec  4 10:32 /home/bjb2chen/gmsscr//AsH3cat_cct_gmcpt_C1_3st_diab_mode3_+0.05_mode1_+0.05.F98.001
-rw-r--r-- 1 bjb2chen nooijen    30264 Dec  4 10:33 /home/bjb2chen/gmsscr//AsH3cat_cct_gmcpt_C1_3st_diab_mode3_+0.05_mode1_+0.05.F99
-rw-r--r-- 1 bjb2chen nooijen    30264 Dec  4 10:33 /home/bjb2chen/gmsscr//AsH3cat_cct_gmcpt_C1_3st_diab_mode3_+0.05_mode1_+0.05.F99.001
ls: No match.
ls: No match.
ls: No match.
Mon 04 Dec 2023 10:34:22 AM EST
0.174u 0.032s 5:34.80 0.0%	0+0k 288+496io 0pf+0w
