----- GAMESS execution script 'rungms' -----
This job is running on host io001
under operating system Linux at Mon 04 Dec 2023 10:28:44 AM EST
Available scratch disk space (Kbyte units) at beginning of the job is
Filesystem             1K-blocks       Used Available Use% Mounted on
helmholtz.nlogn:/home 6391504896 5230537728 838829056  87% /home
GAMESS temporary binary files will be written to /home/bjb2chen/gmsscr/
GAMESS supplementary output files will be written to /home/bjb2chen/gamess/vibronics/ash3/4state
Copying input file AsH3cat_cct_gmcpt_C1_3st_diab_mode1_-0.05.inp to your run's scratch directory...
cp AsH3cat_cct_gmcpt_C1_3st_diab_mode1_-0.05.inp /home/bjb2chen/gmsscr//AsH3cat_cct_gmcpt_C1_3st_diab_mode1_-0.05.F05
unset echo
 
Assuming a single but multicore node.
 
/home/bjb2chen/gamess/ddikick.x /home/bjb2chen/gamess/gamess.00.x AsH3cat_cct_gmcpt_C1_3st_diab_mode1_-0.05 -ddi 1 2 io001:cpus=2 -scr /home/bjb2chen/gmsscr/

 Distributed Data Interface kickoff program.
 Initiating 2 compute processes on 1 nodes to run the following command:
 /home/bjb2chen/gamess/gamess.00.x AsH3cat_cct_gmcpt_C1_3st_diab_mode1_-0.05 

          ******************************************************
          *         GAMESS VERSION = 02 AUG 2018 (R2)         *
          *             FROM IOWA STATE UNIVERSITY             *
          * M.W.SCHMIDT, K.K.BALDRIDGE, J.A.BOATZ, S.T.ELBERT, *
          *   M.S.GORDON, J.H.JENSEN, S.KOSEKI, N.MATSUNAGA,   *
          *          K.A.NGUYEN, S.J.SU, T.L.WINDUS,           *
          *       TOGETHER WITH M.DUPUIS, J.A.MONTGOMERY       *
          *         J.COMPUT.CHEM.  14, 1347-1363(1993)        *
          **************** 64 BIT LINUX VERSION ****************

  SINCE 1993, STUDENTS AND POSTDOCS WORKING AT IOWA STATE UNIVERSITY
  AND ALSO IN THEIR VARIOUS JOBS AFTER LEAVING ISU HAVE MADE IMPORTANT
  CONTRIBUTIONS TO THE CODE:
     IVANA ADAMOVIC, CHRISTINE AIKENS, YURI ALEXEEV, POOJA ARORA,
     ANDREY ASADCHEV, ROB BELL, PRADIPTA BANDYOPADHYAY, JONATHAN BENTZ,
     BRETT BODE, KURT BRORSEN, CALEB CARLIN, GALINA CHABAN, WEI CHEN,
     CHEOL HO CHOI, PAUL DAY, ALBERT DEFUSCO, NUWAN DESILVA, TIM DUDLEY,
     DMITRI FEDOROV, ALEX FINDLATER, GRAHAM FLETCHER, MARK FREITAG,
     KURT GLAESEMANN, ANASTASIA GUININA,
     DAN KEMP, GRANT MERRILL, NORIYUKI MINEZAWA, JONATHAN MULLIN,
     TAKESHI NAGATA, SEAN NEDD, HEATHER NETZLOFF, BOSILJKA NJEGIC, RYAN OLSON,
     MIKE PAK, BUU PHAM,
     SPENCER PRUITT, LUKE ROSKOP, JIM SHOEMAKER, LYUDMILA SLIPCHENKO,
     TONY SMITH, SAROM SOK LEANG, JIE SONG, TETSUYA TAKETSUGU, SIMON WEBB,
     PENG XU, SOOHAENG YOO, FEDERICO ZAHARIEV

  ADDITIONAL CODE HAS BEEN PROVIDED BY COLLABORATORS IN OTHER GROUPS:
     IOWA STATE UNIVERSITY:
          JOE IVANIC, AARON WEST, LAIMUTIS BYTAUTAS, KLAUS RUEDENBERG
     UNIVERSITY OF TOKYO: KIMIHIKO HIRAO, TAKAHITO NAKAJIMA,
          TAKAO TSUNEDA, MUNEAKI KAMIYA, SUSUMU YANAGISAWA,
          KIYOSHI YAGI, MAHITO CHIBA, SEIKEN TOKURA, NAOAKI KAWAKAMI
     UNIVERSITY OF AARHUS: FRANK JENSEN
     UNIVERSITY OF IOWA: VISVALDAS KAIRYS, HUI LI
     NATIONAL INST. OF STANDARDS AND TECHNOLOGY: WALT STEVENS, DAVID GARMER
     UNIVERSITY OF PISA: BENEDETTA MENNUCCI, JACOPO TOMASI
     UNIVERSITY OF MEMPHIS: HENRY KURTZ, PRAKASHAN KORAMBATH
     UNIVERSITY OF ALBERTA: TOBY ZENG, MARIUSZ KLOBUKOWSKI
     UNIVERSITY OF NEW ENGLAND: MARK SPACKMAN
     MIE UNIVERSITY: HIROAKI UMEDA
     NAT. INST. OF ADVANCED INDUSTRIAL SCIENCE AND TECHNOLOGY: KAZUO KITAURA
     MICHIGAN STATE UNIVERSITY:
          KAROL KOWALSKI, MARTA WLOCH, JEFFREY GOUR, JESSE LUTZ,
          WEI LI, JUN SHEN, J. EMILIANO DEUSTUA, PIOTR PIECUCH
     UNIVERSITY OF MINNESOTA:
          YINAN SHU
     UNIVERSITY OF SILESIA: MONIKA MUSIAL, STANISLAW KUCHARSKI
     FACULTES UNIVERSITAIRES NOTRE-DAME DE LA PAIX:
          OLIVIER QUINET, BENOIT CHAMPAGNE
     UNIVERSITY OF CALIFORNIA - SANTA BARBARA: BERNARD KIRTMAN
     INSTITUTE FOR MOLECULAR SCIENCE:
          KAZUYA ISHIMURA, MICHIO KATOUDA, AND SHIGERU NAGASE
     UNIVERSITY OF NOTRE DAME: ANNA POMOGAEVA, DAN CHIPMAN
     KYUSHU UNIVERSITY:
          HARUYUKI NAKANO,
          FENG LONG GU, JACEK KORCHOWIEC, MARCIN MAKOWSKI, AND YURIKO AOKI,
          HIROTOSHI MORI AND EISAKU MIYOSHI
     PENNSYLVANIA STATE UNIVERSITY:
          TZVETELIN IORDANOV, CHET SWALINA, JONATHAN SKONE,
          SHARON HAMMES-SCHIFFER
     WASEDA UNIVERSITY:
          MASATO KOBAYASHI, TOMOKO AKAMA, TSUGUKI TOUMA,
          TAKESHI YOSHIKAWA, YASUHIRO IKABATA, JUNJI SEINO,
          YUYA NAKAJIMA, HIROMI NAKAI
     NANJING UNIVERSITY: SHUHUA LI
     UNIVERSITY OF NEBRASKA:
          PEIFENG SU, DEJUN SI, NANDUN THELLAMUREGE, YALI WANG, HUI LI
     UNIVERSITY OF ZURICH: ROBERTO PEVERATI, KIM BALDRIDGE
     N. COPERNICUS UNIVERSITY AND JACKSON STATE UNIVERSITY:
          MARIA BARYSZ
     UNIVERSITY OF COPENHAGEN: Jimmy Kromann, CASPER STEINMANN
     TOKYO INSTITUTE OF TECHNOLOGY: HIROYA NAKATA
     NAGOYA UNIVERSITY: YOSHIO NISHIMOTO, STEPHAN IRLE
     MOSCOW STATE UNIVERSITY: VLADIMIR MIRONOV


 PARALLEL VERSION RUNNING ON        2 PROCESSORS IN        1 NODES.

 EXECUTION OF GAMESS BEGUN Mon Dec  4 10:28:44 2023

            ECHO OF THE FIRST FEW INPUT CARDS -
 INPUT CARD> !Step 4: Calculation using REFDET                                              
 INPUT CARD> $system kdiag=3 mwords=250 memddi=8000 parall=.t. $end                         
 INPUT CARD> $contrl runtyp=energy ispher=1 $end                                            
 INPUT CARD> $contrl icut=9 itol=20 inttyp=rysquad qmttol=1.0d-05 nosym=1 $end              
 INPUT CARD> $scf    npunch=2 conv=1.0d-06 dirscf=.t. diis=.t. soscf=.f. ethrsh=10.0 $end   
 INPUT CARD> $contrl scftyp=mcscf  mult=2 maxit=200 icharg=1 mplevl=2 $end                  
 INPUT CARD> $guess  guess=moread norb=85 purify=.t. $end                                   
 INPUT CARD> $basis  gbasis=cct $end                                                        
 INPUT CARD> $mcscf  cistep=gmcci fullnr=.t. finci=mos                                      
 INPUT CARD>         acurcy=1.d-6 maxit=200 $end                                            
 INPUT CARD> $trans  dirtrf=.t. $end                                                        
 INPUT CARD> $mrmp   mrpt=gmcpt rdvecs=.f. $end                                             
 INPUT CARD> $gmcpt  nmofzc=5 nmodoc=9 nmoact=7 nelact=7 stsym(1)=A                         
 INPUT CARD>         reftyp=ormas nspace=1 mstart(1)=15 mine(1)=7 maxe(1)=7                 
 INPUT CARD>         kstate(1)=1,1,1,1                                                      
 INPUT CARD>         wstate(1)=1,1,1,1                                                      
 INPUT CARD>         iwgt=0 thrwgt=-1.0 krot=.f. kszdoe=.f. knospn=.f.                      
 INPUT CARD>         thrde=-1.0 edshft=0.02 $end                                            
 INPUT CARD> $statpt hssend=.t. $end                                                        
 INPUT CARD> $end                                                                           
 INPUT CARD>--- Semi-canonical MOs --- generated at Mon Dec  4 10:21:58 2023                
 INPUT CARD> $VEC                                                                           
 INPUT CARD> 1  1 9.99999416E-01 7.29973887E-07-3.99440478E-06-4.81875831E-06 1.63484706E-05
 INPUT CARD> 1  2 5.36732169E-06-0.00000000E+00-0.00000000E+00-0.00000000E+00 4.03838885E-11
 INPUT CARD> 1  3-0.00000000E+00-0.00000000E+00 7.96211074E-11 1.14517212E-11-0.00000000E+00
 INPUT CARD> 1  4-1.40849369E-11-0.00000000E+00-0.00000000E+00-2.21867430E-11-0.00000000E+00
 INPUT CARD> 1  5-0.00000000E+00 1.08959399E-07 1.08961145E-07-2.17920544E-07-0.00000000E+00
 INPUT CARD> 1  6-0.00000000E+00-0.00000000E+00 7.02728157E-08 7.02573272E-08-1.40530143E-07
 INPUT CARD> 1  7-0.00000000E+00-0.00000000E+00-0.00000000E+00 8.61676265E-08 8.61266319E-08
 INPUT CARD> 1  8-1.72294258E-07-0.00000000E+00-0.00000000E+00-0.00000000E+00 1.61185015E-07
 INPUT CARD> 1  9-0.00000000E+00-0.00000000E+00-0.00000000E+00-0.00000000E+00-2.16246982E-07
 INPUT CARD> 1 10-0.00000000E+00-0.00000000E+00-0.00000000E+00-0.00000000E+00-2.29650252E-07
 INPUT CARD> 1 11-4.66898658E-07-1.12343498E-06-6.64097518E-08 1.15015824E-07-0.00000000E+00
 INPUT CARD> 1 12-1.90369794E-07 3.29734733E-07-0.00000000E+00 4.67684240E-08-2.10541491E-07
 INPUT CARD> 1 13 1.63773067E-07 2.57316182E-07-0.00000000E+00-0.00000000E+00-2.29652599E-07
 INPUT CARD> 1 14-4.66879487E-07-1.12342770E-06-6.64102175E-08-1.15016523E-07-0.00000000E+00
 INPUT CARD> 1 15-1.90364897E-07-3.29724918E-07-0.00000000E+00 4.67679470E-08-2.10540564E-07
 INPUT CARD> 1 16 1.63772617E-07-2.57315196E-07-0.00000000E+00-0.00000000E+00-2.29639944E-07
 INPUT CARD> 1 17-4.66987046E-07-1.12340031E-06 1.32807841E-07-0.00000000E+00-0.00000000E+00
 INPUT CARD> 1 18 3.80780830E-07-0.00000000E+00-0.00000000E+00-3.39206184E-07 1.75440103E-07
 INPUT CARD> 1 19 1.63766080E-07-0.00000000E+00-0.00000000E+00-0.00000000E+00               
 INPUT CARD> 2  1 2.72313662E-06 1.00010341E+00 1.34746909E-04 1.43214017E-04-4.26044547E-04
 INPUT CARD> 2  2-1.40486446E-04 7.10299112E-11-7.88863849E-11-0.00000000E+00-5.42197215E-11
 INPUT CARD> 2  3-1.27361486E-11-0.00000000E+00-1.68049866E-10-3.19745914E-11-0.00000000E+00
 INPUT CARD> 2  4 2.95588732E-11-0.00000000E+00-0.00000000E+00-0.00000000E+00-0.00000000E+00
 INPUT CARD> 2  5-0.00000000E+00-6.69941071E-07-6.69957164E-07 1.33989824E-06-0.00000000E+00
 INPUT CARD> 2  6-0.00000000E+00-0.00000000E+00-2.23303604E-06-2.23305293E-06 4.46608898E-06
 INPUT CARD> 2  7-0.00000000E+00-0.00000000E+00-0.00000000E+00-1.84537905E-06-1.84515653E-06
 INPUT CARD> 2  8 3.69053558E-06 1.25718203E-11-0.00000000E+00-0.00000000E+00-6.15992627E-06
 INPUT CARD> 2  9-0.00000000E+00-0.00000000E+00-0.00000000E+00-0.00000000E+00 8.26439636E-06
  250000000 WORDS OF MEMORY AVAILABLE

     BASIS OPTIONS
     -------------
     GBASIS=CCT          IGAUSS=       0      POLAR=NONE    
     NDFUNC=       0     NFFUNC=       0     DIFFSP=       F
     NPFUNC=       0      DIFFS=       F     BASNAM=        


     RUN TITLE
     ---------
 AsH3+ calculation at 4 states                                                   

 THE POINT GROUP OF THE MOLECULE IS C1      
 THE ORDER OF THE PRINCIPAL AXIS IS     0

 ATOM      ATOMIC                      COORDINATES (BOHR)
           CHARGE         X                   Y                   Z
 AS         33.0     0.0000000000       -0.0000000000        0.0003770715
 H           1.0    -1.3842523978        2.3975954863       -0.0093430380
 H           1.0    -1.3842524004       -2.3975954847       -0.0093430378
 H           1.0     2.7685047980       -0.0000000015       -0.0093430375

          INTERNUCLEAR DISTANCES (ANGS.)
          ------------------------------

                1 AS         2 H          3 H          4 H     

   1 AS      0.0000000    1.4650388 *  1.4650388 *  1.4650388 *
   2 H       1.4650388 *  0.0000000    2.5375060 *  2.5375060 *
   3 H       1.4650388 *  2.5375060 *  0.0000000    2.5375060 *
   4 H       1.4650388 *  2.5375060 *  2.5375060 *  0.0000000  

  * ... LESS THAN  3.000


     ATOMIC BASIS SET
     ----------------
 THE CONTRACTED PRIMITIVE FUNCTIONS HAVE BEEN UNNORMALIZED
 THE CONTRACTED BASIS FUNCTIONS ARE NOW NORMALIZED TO UNITY

  SHELL TYPE  PRIMITIVE        EXPONENT          CONTRACTION COEFFICIENT(S)

 AS        

      1   S       1       8482340.0000000    0.000006800003
      1   S       2       1270151.0000000    0.000052800023
      1   S       3        289057.0000000    0.000277400122
      1   S       4         81879.8500000    0.001170200514
      1   S       5         26716.5600000    0.004242101862
      1   S       6          9647.5840000    0.013655705995
      1   S       7          3764.1190000    0.039339917271
      1   S       8          1561.5660000    0.099929243872
      1   S       9           680.8147000    0.212155593142
      1   S      10           309.2412000    0.336386747683
      1   S      11           145.2574000    0.315512638518
      1   S      12            69.7390500    0.118131251863
      1   S      13            31.7703200    0.008007603516
      1   S      14            15.3917600    0.000329300145
      1   S      15             7.3415260   -0.000152300067
      1   S      16             3.3237160    0.000024700011
      1   S      17             1.4858670   -0.000036600016
      1   S      18             0.2115000   -0.000009400004

      2   S      19       8482340.0000000   -0.000002099844
      2   S      20       1270151.0000000   -0.000016498771
      2   S      21        289057.0000000   -0.000086593551
      2   S      22         81879.8500000   -0.000365272798
      2   S      23         26716.5600000   -0.001330800894
      2   S      24          9647.5840000   -0.004308979105
      2   S      25          3764.1190000   -0.012696354487
      2   S      26          1561.5660000   -0.033613496762
      2   S      27           680.8147000   -0.078941121158
      2   S      28           309.2412000   -0.151434522485
      2   S      29           145.2574000   -0.204186194004
      2   S      30            69.7390500   -0.055732549529
      2   S      31            31.7703200    0.418729516699
      2   S      32            15.3917600    0.575833316987
      2   S      33             7.3415260    0.169671564351
      2   S      34             3.3237160    0.006065748276
      2   S      35             1.4858670    0.001760368903
      2   S      36             0.2115000    0.000231582754

      3   S      37       8482340.0000000    0.000000818623
      3   S      38       1270151.0000000    0.000006548987
      3   S      39        289057.0000000    0.000034484509
      3   S      40         81879.8500000    0.000145612630
      3   S      41         26716.5600000    0.000530877249
      3   S      42          9647.5840000    0.001719313712
      3   S      43          3764.1190000    0.005083344082
      3   S      44          1561.5660000    0.013519053150
      3   S      45           680.8147000    0.032188884481
      3   S      46           309.2412000    0.063284292808
      3   S      47           145.2574000    0.090004159277
      3   S      48            69.7390500    0.026354351138
      3   S      49            31.7703200   -0.251262012099
      3   S      50            15.3917600   -0.520907644337
      3   S      51             7.3415260   -0.056868639208
      3   S      52             3.3237160    0.724870110338
      3   S      53             1.4858670    0.535280112340
      3   S      54             0.2115000   -0.011376408833

      4   S      55       8482340.0000000   -0.000000322182
      4   S      56       1270151.0000000   -0.000002899636
      4   S      57        289057.0000000   -0.000014981451
      4   S      58         81879.8500000   -0.000063147623
      4   S      59         26716.5600000   -0.000230198862
      4   S      60          9647.5840000   -0.000745689664
      4   S      61          3764.1190000   -0.002204850817
      4   S      62          1561.5660000   -0.005870151514
      4   S      63           680.8147000   -0.013996219653
      4   S      64           309.2412000   -0.027636106289
      4   S      65           145.2574000   -0.039550065282
      4   S      66            69.7390500   -0.011844045553
      4   S      67            31.7703200    0.115999445484
      4   S      68            15.3917600    0.253920137348
      4   S      69             7.3415260    0.022886825089
      4   S      70             3.3237160   -0.459365613804
      4   S      71             1.4858670   -0.625893951029
      4   S      72             0.2115000    1.046339525967

      5   S      73             0.4210860    1.000000000000

      6   S      74             0.0889740    1.000000000000

      7   P      75          7423.8610000    0.000459888095
      7   P      76          1759.5170000    0.003982196918
      7   P      77           570.2292000    0.021463244409
      7   P      78           216.5800000    0.082459565479
      7   P      79            90.7342500    0.223884404601
      7   P      80            40.3087900    0.392060251256
      7   P      81            18.5555000    0.354214630915
      7   P      82             8.3965430    0.104861385592
      7   P      83             3.7673670    0.003366312861
      7   P      84             1.6297010    0.001849452126
      7   P      85             0.2225030    0.000229694054

      8   P      86          7423.8610000   -0.000183933273
      8   P      87          1759.5170000   -0.001603623364
      8   P      88           570.2292000   -0.008714684634
      8   P      89           216.5800000   -0.034482567311
      8   P      90            90.7342500   -0.097731519242
      8   P      91            40.3087900   -0.183894927481
      8   P      92            18.5555000   -0.150374370146
      8   P      93             8.3965430    0.201569541112
      8   P      94             3.7673670    0.550783570924
      8   P      95             1.6297010    0.395483295494
      8   P      96             0.2225030   -0.005537068181

      9   P      97          7423.8610000    0.000067575484
      9   P      98          1759.5170000    0.000590735054
      9   P      99           570.2292000    0.003209920148
      9   P     100           216.5800000    0.012757201241
      9   P     101            90.7342500    0.036296841475
      9   P     102            40.3087900    0.069067055648
      9   P     103            18.5555000    0.055084858236
      9   P     104             8.3965430   -0.092951347783
      9   P     105             3.7673670   -0.256062306212
      9   P     106             1.6297010   -0.211535143443
      9   P     107             0.2225030    0.991664800915

     10   P     108             0.5682630    1.000000000000

     11   P     109             0.0804050    1.000000000000

     12   D     110           321.0196000    0.001738948853
     12   D     111            96.2493100    0.014620594557
     12   D     112            36.6449600    0.064875906626
     12   D     113            15.4939600    0.184323725081
     12   D     114             6.8911380    0.331417629149
     12   D     115             3.0548310    0.389664464481
     12   D     116             1.3142410    0.283997092847

     13   D     117             0.5134300    1.000000000000

     14   D     118             0.1877000    1.000000000000

     15   F     119             0.4158000    1.000000000000

 H         

     16   S     120            33.8700000    0.025494863235
     16   S     121             5.0950000    0.190362765893
     16   S     122             1.1590000    0.852162022245

     17   S     123             0.3258000    1.000000000000

     18   S     124             0.1027000    1.000000000000

     19   P     125             1.4070000    1.000000000000

     20   P     126             0.3880000    1.000000000000

     21   D     127             1.0570000    1.000000000000

 H         

     22   S     128            33.8700000    0.025494863235
     22   S     129             5.0950000    0.190362765893
     22   S     130             1.1590000    0.852162022245

     23   S     131             0.3258000    1.000000000000

     24   S     132             0.1027000    1.000000000000

     25   P     133             1.4070000    1.000000000000

     26   P     134             0.3880000    1.000000000000

     27   D     135             1.0570000    1.000000000000

 H         

     28   S     136            33.8700000    0.025494863235
     28   S     137             5.0950000    0.190362765893
     28   S     138             1.1590000    0.852162022245

     29   S     139             0.3258000    1.000000000000

     30   S     140             0.1027000    1.000000000000

     31   P     141             1.4070000    1.000000000000

     32   P     142             0.3880000    1.000000000000

     33   D     143             1.0570000    1.000000000000

 TOTAL NUMBER OF BASIS SET SHELLS             =   33
 NUMBER OF CARTESIAN GAUSSIAN BASIS FUNCTIONS =   94
 NOTE: THIS RUN WILL RESTRICT THE MO VARIATION SPACE TO SPHERICAL HARMONICS.
 THE NUMBER OF ORBITALS KEPT IN THE VARIATIONAL SPACE WILL BE PRINTED LATER.
 NUMBER OF ELECTRONS                          =   35
 CHARGE OF MOLECULE                           =    1
 SPIN MULTIPLICITY                            =    2
 NUMBER OF OCCUPIED ORBITALS (ALPHA)          =   18
 NUMBER OF OCCUPIED ORBITALS (BETA )          =   17
 TOTAL NUMBER OF ATOMS                        =    4
 THE NUCLEAR REPULSION ENERGY IS       36.3847809505

     $CONTRL OPTIONS
     ---------------
 SCFTYP=MCSCF        RUNTYP=ENERGY       EXETYP=RUN     
 MPLEVL=       2     CITYP =NONE         CCTYP =NONE         VBTYP =NONE    
 DFTTYP=NONE         TDDFT =NONE    
 MULT  =       2     ICHARG=       1     NZVAR =       0     COORD =UNIQUE  
 PP    =NONE         RELWFN=NONE         LOCAL =NONE         NUMGRD=       F
 ISPHER=       1     NOSYM =       1     MAXIT =     200     UNITS =ANGS    
 PLTORB=       F     MOLPLT=       F     AIMPAC=       F     FRIEND=        
 NPRINT=       7     IREST =       0     GEOM  =INPUT   
 NORMF =       0     NORMP =       0     ITOL  =      20     ICUT  =       9
 INTTYP=RYSQUAD      GRDTYP=BEST         QMTTOL= 1.0E-05

     $SYSTEM OPTIONS
     ---------------
  REPLICATED MEMORY=   250000000 WORDS (ON EVERY NODE).
 DISTRIBUTED MEMDDI=        8000 MILLION WORDS IN AGGREGATE,
 MEMDDI DISTRIBUTED OVER   2 PROCESSORS IS  4000000000 WORDS/PROCESSOR.
 TOTAL MEMORY REQUESTED ON EACH PROCESSOR=  4250000000 WORDS.
 TIMLIM=      525600.00 MINUTES, OR     365.0 DAYS.
 PARALL= T  BALTYP=  DLB     KDIAG=    3  COREFL= F
 MXSEQ2=     300 MXSEQ3=     150  mem10=         0

          ----------------
          PROPERTIES INPUT
          ----------------

     MOMENTS            FIELD           POTENTIAL          DENSITY
 IEMOM =       1   IEFLD =       0   IEPOT =       0   IEDEN =       0
 WHERE =COMASS     WHERE =NUCLEI     WHERE =NUCLEI     WHERE =NUCLEI  
 OUTPUT=BOTH       OUTPUT=BOTH       OUTPUT=BOTH       OUTPUT=BOTH    
 IEMINT=       0   IEFINT=       0                     IEDINT=       0
                                                       MORB  =       0

     -------------------------------
     INTEGRAL TRANSFORMATION OPTIONS
     -------------------------------
     NWORD  =            0
     CUTOFF = 1.0E-09     MPTRAN =       0
     DIRTRF =       T     AOINTS =DUP     

          ----------------------
          MCSCF INPUT PARAMETERS
          ----------------------
 CONVERGER SELECTION: FOCAS = F  SOSCF = F  FULLNR = T  QUD = F  JACOBI = F
 SECULAR EQUATION METHOD CISTEP = GMCCI   
 --- GENERAL INPUT OPTIONS:
 MAXIT =     200  MICIT =       1  ACURCY= 1.000E-06
 DAMP  =   0.000  CANONC=       T  ENGTOL= 1.000E-10
 EKT   =       F  NPUNCH=       2  NWORD =         0
 REGENERATE CI AFTER CONVERGENCE = NONE    
 DIABATIZATION AFTER CONVERGENCE =        F
 --- INPUT FOR FULLNR CONVERGER:
 METHOD=DM2       FORS  =       F  DROPC =       T
 LINSER=       F  FCORE =       F  NORB  =      94

          ----------------------
          INTEGRAL INPUT OPTIONS
          ----------------------
 NOPK  =       1 NORDER=       0 SCHWRZ=       T

 ------------------------------------------
 MULTIREFERENCE PERTURBATION THEORY CONTROL
 ------------------------------------------
 MRPT=GMCPT    READ CONVERGED MCSCF VECTORS= F


     ------------------------------------------
     THE POINT GROUP IS C1 , NAXIS= 1, ORDER= 1
     ------------------------------------------

 -- VARIATIONAL SPACE WILL BE RESTRICTED TO PURE SPHERICAL HARMONICS ONLY --
 AFTER EXCLUDING CONTAMINANT COMBINATIONS FROM THE CARTESIAN GAUSSIAN BASIS
 SET, THE NUMBER OF SPHERICAL HARMONICS KEPT IN THE VARIATION SPACE IS   85

     DIMENSIONS OF THE SYMMETRY SUBSPACES ARE
 A   =   85

 ..... DONE SETTING UP THE RUN .....
 CPU     0: STEP CPU TIME=     0.14 TOTAL CPU TIME=          0.1 (      0.0 MIN)
 TOTAL WALL CLOCK TIME=          0.4 SECONDS, CPU UTILIZATION IS    34.15%

          ********************
          1 ELECTRON INTEGRALS
          ********************
 TIME TO DO   DIPOLE INTEGRALS=      0.02
 ...... END OF ONE-ELECTRON INTEGRALS ......
 CPU     0: STEP CPU TIME=     0.02 TOTAL CPU TIME=          0.2 (      0.0 MIN)
 TOTAL WALL CLOCK TIME=          0.4 SECONDS, CPU UTILIZATION IS    37.21%

          -------------
          GUESS OPTIONS
          -------------
          GUESS =MOREAD            NORB  =      85          NORDER=       0
          MIX   =       F          PRTMO =       F          PUNMO =       F
          TOLZ  = 1.0E-08          TOLE  = 1.0E-05
          SYMDEN=       F          PURIFY=       T

 INITIAL GUESS ORBITALS GENERATED BY MOREAD   ROUTINE.

 STATISTICS FOR GENERATION OF SYMMETRY ORBITAL -Q- MATRIX
 NUMBER OF CARTESIAN ATOMIC ORBITALS=         94
 NUMBER OF SPHERICAL CONTAMINANTS DROPPED=     9
 NUMBER OF LINEARLY DEPENDENT MOS DROPPED=     0
 TOTAL NUMBER OF MOS IN VARIATION SPACE=      85
 ORBITAL PURIFICATION WILL OCCUR

 SYMMETRIES FOR INITIAL GUESS ORBITALS FOLLOW.   BOTH SET(S).
    18 ORBITALS ARE OCCUPIED (   14 CORE ORBITALS).
     1=A        2=A        3=A        4=A        5=A        6=A        7=A   
     8=A        9=A       10=A       11=A       12=A       13=A       14=A   
    15=A       16=A       17=A       18=A       19=A       20=A       21=A   
    22=A       23=A       24=A       25=A       26=A       27=A       28=A   
    29=A       30=A       31=A       32=A       33=A       34=A       35=A   
    36=A       37=A       38=A       39=A       40=A       41=A       42=A   
    43=A       44=A       45=A       46=A       47=A       48=A       49=A   
    50=A       51=A       52=A       53=A       54=A       55=A       56=A   
    57=A       58=A       59=A       60=A       61=A       62=A       63=A   
    64=A       65=A       66=A       67=A       68=A       69=A       70=A   
    71=A       72=A       73=A       74=A       75=A       76=A       77=A   
    78=A       79=A       80=A       81=A       82=A       83=A       84=A   
    85=A   
 ...... END OF INITIAL ORBITAL SELECTION ......
 CPU     0: STEP CPU TIME=     0.09 TOTAL CPU TIME=          0.2 (      0.0 MIN)
 TOTAL WALL CLOCK TIME=          0.6 SECONDS, CPU UTILIZATION IS    43.10%

                    ----------------------
                    AO INTEGRAL TECHNOLOGY
                    ----------------------
     S,P,L SHELL ROTATED AXIS INTEGRALS, REPROGRAMMED BY
        KAZUYA ISHIMURA (IMS) AND JOSE SIERRA (SYNSTAR).
     S,P,D,L SHELL ROTATED AXIS INTEGRALS PROGRAMMED BY
        KAZUYA ISHIMURA (INSTITUTE FOR MOLECULAR SCIENCE).
     S,P,D,F,G SHELL TO TOTAL QUARTET ANGULAR MOMENTUM SUM 5,
        ERIC PROGRAM BY GRAHAM FLETCHER (ELORET AND NASA ADVANCED
        SUPERCOMPUTING DIVISION, AMES RESEARCH CENTER).
     S,P,D,F,G,L SHELL GENERAL RYS QUADRATURE PROGRAMMED BY
        MICHEL DUPUIS (PACIFIC NORTHWEST NATIONAL LABORATORY).

          --------------------
          2 ELECTRON INTEGRALS
          --------------------

 DIRECT SCF METHOD SKIPS INTEGRAL STORAGE ON DISK.
 DIRECT TRANSFORMATION SKIPS AO INTEGRAL STORAGE ON DISK.
  ...... END OF TWO-ELECTRON INTEGRALS .....
 STEP CPU TIME =     0.02 TOTAL CPU TIME =          0.3 (      0.0 MIN)
 TOTAL WALL CLOCK TIME=          0.6 SECONDS, CPU UTILIZATION IS    44.26%
 DDI: Creating Array [0] - 8836 x 231 = 2041116 words.
 DDI: Creating Array [1] - 64 x 4851 = 310464 words.
 DDI: Creating Array [2] - 231 x 231 = 53361 words.
 DDI: Creating Array [3] - 4465 x 231 = 1031415 words.

          -----------------
          MCSCF CALCULATION
          -----------------

 ----- NUCLEAR ENERGY ----- =        36.3847809505

     -------------------------------------------------
     GMC-PT/GMC-QDPT or general MCSCF input parameters
     -------------------------------------------------
 # of frozen core orbs. =         5 ->         0
 # of doubly occ. orbs. =         9
 # of active      orbs. =         7
 # of virtual     orbs. =        64
 # of active electrons  =         7
 # of states in CI      =         4
 Highest state in CI    =         4
 kstate =  1 1 1 1
 avecoe =  0.250 0.250 0.250 0.250
 State symmetry           = A           
 Assigned symmetry number = 1

 <<<Act. MO sym.: 1111111

 <<<Division of 1-ext.:  0 0
 <<<Division of 2-ext.:  0 1

 *** Reference space

 Reference type: ORMAS (= Occupation restricted multiple active space)
 # of orbitals          =  7
 # of minimum electrons =  7
 # of maximum electrons =  7
 State symmetry    =    1 (input)
 2*Sz              =    1 (input)
 Spin multiplicity =    2 (input)
 Dimension of reference space =      1225  (from      3432 walks)

 Dimension of reference space =      1225  (from      1225 walks)

 <<<Ionized spaces for Ref-CI:
      0:         1225 /   -1-0:         1960 /  0-1-0:         2891

 EVALUATING EXCHANGE INTEGRALS FOR DIRECT INTEGRAL TRANSFORMATION
 SCHWARZ INEQUALITY OVERHEAD:      4465 INTEGRALS, T=        0.22

     --------------------------------------------
     PARTIAL TWO ELECTRON INTEGRAL TRANSFORMATION
     --------------------------------------------

 NUMBER OF CORE MOLECULAR ORBITALS     =   14
 NUMBER OF OCCUPIED MOLECULAR ORBITALS =   21
 TOTAL NUMBER OF MOLECULAR ORBITALS    =   85
 TOTAL NUMBER OF ATOMIC ORBITALS       =   94
 THRESHOLD FOR KEEPING TRANSFORMED 2E- INTEGRALS = 1.000E-09

 -------------------------------     ------------------------------
 DISTRIBUTED DATA TRANSFORMATION     PROGRAM WRITTEN BY G. FLETCHER
 -------------------------------     ------------------------------

 THE DISTRIBUTED MEMORY REQUIRED FOR THIS STEP IS MEMDDI=         4 MWORDS
 CREATING DISTRIBUTED STORAGE FOR [VIR OCC|VIR OCC] INTEGRALS
 CREATING DISTRIBUTED STORAGE FOR [VIR OCC|OCC OCC] INTEGRALS
 CREATING DISTRIBUTED STORAGE FOR [OCC OCC|OCC OCC] INTEGRALS
 CREATING DISTRIBUTED STORAGE FOR [VIR VIR|OCC OCC] INTEGRALS
 FOR    2 PROCESSORS, THE REPLICATED MEMORY NEEDED IS      615709 WORDS.
 SCHWARZ INEQUALITY OVERHEAD:      4465 INTEGRALS, T=        0.21

      DIRECT 4-INDEX TRANSFORMATION 
      SCHWARZ INEQUALITY TEST SKIPPED       1074 INTEGRAL BLOCKS
 ----- FROZEN CORE ENERGY =     -2258.5581187926
 ... END OF INTEGRAL TRANSFORMATION ...
 CPU     0: STEP CPU TIME=    14.94 TOTAL CPU TIME=         15.2 (      0.3 MIN)
 TOTAL WALL CLOCK TIME=         15.6 SECONDS, CPU UTILIZATION IS    97.25%

     --------------------------------     -----------------------------
     MCHF NEWTON-RAPHSON OPTIMIZATION     CODE WRITTEN BY MICHEL DUPUIS
     --------------------------------     -----------------------------
     PARALLEL VERSION WRITTEN BY G. FLETCHER (ELORET)
     NASA ADVANCED SUPERCOMPUTING DIVISION, AMES RESEARCH CENTER

 NUMBER OF INDEPENDENT ORBITAL ROTATION PARAMETERS =   774
 ..... DONE SOLVING NEWTON-RAPHSON EQUATIONS .....
 CPU     0: STEP CPU TIME=     0.60 TOTAL CPU TIME=         15.8 (      0.3 MIN)
 TOTAL WALL CLOCK TIME=         16.8 SECONDS, CPU UTILIZATION IS    94.05%
 ..... DONE WITH NTN-RPH ORBITAL ROTATIONS ..... 
 CPU     0: STEP CPU TIME=     0.00 TOTAL CPU TIME=         15.8 (      0.3 MIN)
 TOTAL WALL CLOCK TIME=         16.8 SECONDS, CPU UTILIZATION IS    94.00%
 MAXIMUM MEMORY USED BY NTN-RPH CODE WAS    197978 WORDS.

 ITER     TOTAL ENERGY      DEL(E)  LAGRANGIAN ASYMMETRY   SQCDF  MICIT   DAMP
   1    -2235.516971834 -0.516971834  0.000983   58   18 6.394E-06  1   0.0000
   2    -2235.516974757 -0.000002923  0.000095   31   18 3.240E-06  1   0.0000
   3    -2235.516974911 -0.000000154  0.000035   31   18 1.250E-06  1   0.0000
   4    -2235.516974962 -0.000000051  0.000017   31   18 4.765E-07  1   0.0000
   5    -2235.516974980 -0.000000019  0.000009   31   18 1.806E-07  1   0.0000
   6    -2235.516974987 -0.000000007  0.000005   31   18 6.817E-08  1   0.0000
   7    -2235.516974990 -0.000000003  0.000003   31   18 2.580E-08  1   0.0000
   8    -2235.516974991 -0.000000001  0.000002   31   18 9.714E-09  1   0.0000
   9    -2235.516974991 -0.000000000  0.000001   31   18 3.669E-09  1   0.0000
  10    -2235.516974992 -0.000000000  0.000001   31   18 1.380E-09  1   0.0000

          --------------------
          LAGRANGIAN CONVERGED
          --------------------

 FINAL MCSCF ENERGY IS    -2235.5169749916 AFTER  10 ITERATIONS

 -MCCI- BASED ON OPTIMIZED ORBITALS
 ----------------------------------

 PLEASE NOTE: IF THE ACTIVE ORBITALS ARE CANONICALIZED BELOW,
 THE FOLLOWING CI EXPANSION COEFFICIENTS AND THE DENSITY DO NOT
 CORRESPOND TO THE PRINTED ORBITALS.  THE PRINTED EXPANSIONS MATCH
 THE ORBITALS USED DURING THE LAST ITERATION.  IF YOU WISH TO SEE
 CI EXPANSIONS BASED ON THE CANONICAL (OR NATURAL) ORBITALS, YOU
 MUST RUN A CI CALCULATION WITH THAT ORBITAL CHOICE READ IN $VEC.

 Averaged energy =   -2235.516974992

 State #    1  Energy =   -2235.693431535  S =  0.500

      Det      Coef    Occupancy (Ignoring core)
      ---      ----    --------- --------- -----
        1   -0.976687  11110001110000
      107    0.073559  11101000111000
      143   -0.060803  11011001100100
      179   -0.060803  10111001010100
      393   -0.059089  10110101010010
      717   -0.059089  11010011100001

 State #    2  Energy =   -2235.481686758  S =  0.500

      Det      Coef    Occupancy (Ignoring core)
      ---      ----    --------- --------- -----
        2    0.951838  11101001110000
      106   -0.172540  11110000111000
      110   -0.057395  01111000111000
      156    0.080892  11100011100100
      181   -0.080892  11100101010100
      212    0.064061  11101000110100
      387   -0.077770  11101001010010
      396    0.060963  10101101010010
      702    0.077770  11101001100001
      720    0.060963  11001011100001

 State #    3  Energy =   -2235.446390837  S =  0.500

      Det      Coef    Occupancy (Ignoring core)
      ---      ----    --------- --------- -----
       16    0.114060  11100011110000
       36   -0.921029  11110001101000
       39   -0.100153  10111001101000
       52   -0.089532  11010011101000
       71    0.234838  11110001011000
       73   -0.100153  11011001011000
      108   -0.054299  11011000111000
      112    0.050018  11010100111000
      123   -0.050018  10110010111000
      142    0.116451  11101001100100
      249   -0.067189  10111001001100
      463   -0.051238  10110101001010

 State #    4  Energy =   -2235.446390836  S =  0.500

      Det      Coef    Occupancy (Ignoring core)
      ---      ----    --------- --------- -----
        6    0.114060  11100101110000
       36    0.234838  11110001101000
       38    0.100153  11011001101000
       71    0.921029  11110001011000
       74   -0.100153  10111001011000
       78   -0.089532  10110101011000
      109    0.054299  10111000111000
      113    0.050018  10110100111000
      122    0.050018  11010010111000
      177   -0.116451  11101001010100
      248   -0.067189  11011001001100
      822   -0.051238  11010011001001

 DENSITY MATRIX OVER ACTIVE MO-S

             1           2           3           4           5

    1    1.9718942
    2    0.0000000   1.7203489
    3    0.0000000  -0.0000000   1.7203489
    4    0.0001359   0.0000000   0.0000000   1.2381202
    5    0.0032650   0.0000000  -0.0000000   0.0038520   0.2905240
    6    0.0000000   0.0008880   0.0000011   0.0000000   0.0000000
    7   -0.0000000  -0.0000011   0.0008880  -0.0000000   0.0000000

             6           7

    6    0.0293819
    7   -0.0000000   0.0293819

 FORMING THE "STANDARD FOCK OPERATOR" IN DIRECT AO INTEGRAL MODE...
 ONLY THE   14 CORE AND   64 VIRTUAL ORBITALS WILL BE CANONICALIZED

          ----------------------
          MCSCF NATURAL ORBITALS
          ----------------------

                      1          2          3          4          5
                 -432.8954   -56.6209   -50.4654   -50.4653   -50.4653
                     A          A          A          A          A   
    1  AS 1  S    0.999999   0.000003  -0.000000  -0.000000   0.000000
    2  AS 1  S    0.000001   1.000103   0.000012  -0.000000   0.000000
    3  AS 1  S   -0.000004   0.000135  -0.000002  -0.000000   0.000000
    4  AS 1  S   -0.000005   0.000143  -0.000001  -0.000000   0.000000
    5  AS 1  S    0.000016  -0.000426   0.000001  -0.000000  -0.000000
    6  AS 1  S    0.000005  -0.000140   0.000001  -0.000000   0.000000
    7  AS 1  X    0.000000   0.000000  -0.000001   0.996525   0.083592
    8  AS 1  Y    0.000000  -0.000000  -0.000000  -0.083592   0.996525
    9  AS 1  Z   -0.000000  -0.000013   1.000026   0.000001   0.000000
   10  AS 1  X   -0.000000  -0.000000  -0.000000  -0.000003  -0.000000
   11  AS 1  Y    0.000000  -0.000000   0.000000   0.000000  -0.000003
   12  AS 1  Z    0.000000  -0.000001   0.000001   0.000000  -0.000000
   13  AS 1  X   -0.000000  -0.000000   0.000000  -0.000088  -0.000007
   14  AS 1  Y    0.000000  -0.000000   0.000000   0.000007  -0.000088
   15  AS 1  Z    0.000000  -0.000000  -0.000002  -0.000000  -0.000000
   16  AS 1  X    0.000000  -0.000000   0.000000  -0.000499  -0.000042
   17  AS 1  Y    0.000000   0.000000  -0.000000   0.000042  -0.000499
   18  AS 1  Z   -0.000000   0.000000  -0.000447  -0.000000  -0.000000
   19  AS 1  X    0.000000   0.000000   0.000000  -0.000090  -0.000008
   20  AS 1  Y    0.000000  -0.000000  -0.000000   0.000008  -0.000090
   21  AS 1  Z   -0.000000   0.000000  -0.000069  -0.000000   0.000000
   22  AS 1 XX    0.000000  -0.000001   0.000001   0.000002   0.000000
   23  AS 1 YY    0.000000  -0.000001   0.000001  -0.000002  -0.000000
   24  AS 1 ZZ   -0.000000   0.000001  -0.000001  -0.000000   0.000000
   25  AS 1 XY    0.000000  -0.000000  -0.000000   0.000000  -0.000002
   26  AS 1 XZ    0.000000  -0.000000  -0.000000  -0.000001  -0.000000
   27  AS 1 YZ    0.000000   0.000000  -0.000000   0.000000  -0.000001
   28  AS 1 XX    0.000000  -0.000002  -0.000000  -0.000055  -0.000005
   29  AS 1 YY    0.000000  -0.000002  -0.000000   0.000055   0.000005
   30  AS 1 ZZ   -0.000000   0.000004   0.000000   0.000000  -0.000000
   31  AS 1 XY   -0.000000  -0.000000  -0.000000  -0.000005   0.000064
   32  AS 1 XZ    0.000000  -0.000000  -0.000000   0.000001   0.000000
   33  AS 1 YZ    0.000000  -0.000000  -0.000000  -0.000000   0.000001
   34  AS 1 XX    0.000000  -0.000002   0.000000  -0.000016  -0.000001
   35  AS 1 YY    0.000000  -0.000002   0.000000   0.000016   0.000001
   36  AS 1 ZZ   -0.000000   0.000004  -0.000000  -0.000000  -0.000000
   37  AS 1 XY   -0.000000   0.000000   0.000000  -0.000002   0.000018
   38  AS 1 XZ    0.000000   0.000000  -0.000000  -0.000000  -0.000000
   39  AS 1 YZ    0.000000   0.000000  -0.000000   0.000000  -0.000000
   40  AS 1 XXX   0.000000  -0.000006  -0.000000  -0.000013  -0.000001
   41  AS 1 YYY   0.000000   0.000000  -0.000000   0.000001  -0.000013
   42  AS 1 ZZZ   0.000000  -0.000000  -0.000000  -0.000000   0.000000
   43  AS 1 XXY   0.000000  -0.000000   0.000000   0.000000  -0.000006
   44  AS 1 XXZ  -0.000000   0.000000   0.000000   0.000000   0.000000
   45  AS 1 YYX  -0.000000   0.000008   0.000000  -0.000006  -0.000000
   46  AS 1 YYZ  -0.000000   0.000000   0.000000  -0.000000  -0.000000
   47  AS 1 ZZX  -0.000000  -0.000000  -0.000000   0.000023   0.000002
   48  AS 1 ZZY  -0.000000  -0.000000  -0.000000  -0.000002   0.000023
   49  AS 1 XYZ   0.000000  -0.000000   0.000000   0.000000  -0.000000
   50  H  2  S   -0.000000   0.000006   0.000000   0.000008  -0.000012
   51  H  2  S   -0.000000   0.000011   0.000000  -0.000040   0.000058
   52  H  2  S   -0.000001   0.000029  -0.000000  -0.000027   0.000039
   53  H  2  X   -0.000000   0.000002  -0.000000  -0.000005   0.000007
   54  H  2  Y    0.000000  -0.000003   0.000000   0.000008  -0.000012
   55  H  2  Z   -0.000000   0.000000   0.000001  -0.000000   0.000000
   56  H  2  X   -0.000000   0.000004   0.000000  -0.000022   0.000029
   57  H  2  Y    0.000000  -0.000008  -0.000000   0.000035  -0.000051
   58  H  2  Z   -0.000000   0.000000  -0.000005  -0.000000   0.000000
   59  H  2 XX    0.000000  -0.000001  -0.000000   0.000005  -0.000002
   60  H  2 YY   -0.000000   0.000005  -0.000000  -0.000018   0.000020
   61  H  2 ZZ    0.000000  -0.000004   0.000000   0.000013  -0.000018
   62  H  2 XY    0.000000  -0.000006   0.000000   0.000016  -0.000027
   63  H  2 XZ   -0.000000   0.000000   0.000003  -0.000000   0.000000
   64  H  2 YZ    0.000000  -0.000000  -0.000005   0.000000  -0.000000
   65  H  3  S   -0.000000   0.000006   0.000000   0.000006   0.000013
   66  H  3  S   -0.000000   0.000011   0.000000  -0.000030  -0.000063
   67  H  3  S   -0.000001   0.000029  -0.000000  -0.000020  -0.000043
   68  H  3  X   -0.000000   0.000002  -0.000000  -0.000004  -0.000007
   69  H  3  Y   -0.000000   0.000003  -0.000000  -0.000006  -0.000013
   70  H  3  Z   -0.000000   0.000000   0.000001  -0.000000  -0.000000
   71  H  3  X   -0.000000   0.000004   0.000000  -0.000017  -0.000032
   72  H  3  Y   -0.000000   0.000008   0.000000  -0.000026  -0.000057
   73  H  3  Z   -0.000000   0.000000  -0.000005  -0.000000  -0.000000
   74  H  3 XX    0.000000  -0.000001  -0.000000   0.000005   0.000003
   75  H  3 YY   -0.000000   0.000005  -0.000000  -0.000014  -0.000023
   76  H  3 ZZ    0.000000  -0.000004   0.000000   0.000009   0.000020
   77  H  3 XY   -0.000000   0.000006  -0.000000  -0.000011  -0.000029
   78  H  3 XZ   -0.000000   0.000000   0.000003  -0.000000  -0.000000
   79  H  3 YZ   -0.000000   0.000000   0.000005  -0.000000  -0.000000
   80  H  4  S   -0.000000   0.000006   0.000000  -0.000014  -0.000001
   81  H  4  S   -0.000000   0.000011   0.000000   0.000070   0.000006
   82  H  4  S   -0.000001   0.000029  -0.000000   0.000047   0.000004
   83  H  4  X    0.000000  -0.000004   0.000000  -0.000017  -0.000001
   84  H  4  Y    0.000000  -0.000000  -0.000000   0.000000  -0.000001
   85  H  4  Z   -0.000000   0.000000   0.000001   0.000000   0.000000
   86  H  4  X    0.000000  -0.000009  -0.000000  -0.000071  -0.000006
   87  H  4  Y    0.000000   0.000000  -0.000000   0.000000  -0.000002
   88  H  4  Z   -0.000000   0.000000  -0.000005   0.000000   0.000000
   89  H  4 XX   -0.000000   0.000008  -0.000000   0.000042   0.000004
   90  H  4 YY    0.000000  -0.000004   0.000000  -0.000020  -0.000002
   91  H  4 ZZ    0.000000  -0.000004   0.000000  -0.000022  -0.000002
   92  H  4 XY   -0.000000  -0.000000  -0.000000   0.000000  -0.000004
   93  H  4 XZ    0.000000  -0.000000  -0.000006  -0.000000  -0.000000
   94  H  4 YZ    0.000000  -0.000000  -0.000000  -0.000000   0.000000

                      6          7          8          9         10
                   -8.3450    -6.1998    -6.1998    -6.1964    -2.4338
                     A          A          A          A          A   
    1  AS 1  S   -0.000085   0.000000  -0.000000   0.000002   0.000000
    2  AS 1  S   -0.000609   0.000000  -0.000000   0.000017   0.000000
    3  AS 1  S    0.975257  -0.000000  -0.000000   0.000138   0.000000
    4  AS 1  S   -0.001924   0.000000  -0.000000   0.000055   0.000000
    5  AS 1  S    0.036270  -0.000000   0.000000  -0.000039  -0.000000
    6  AS 1  S    0.004132   0.000000   0.000000  -0.000017   0.000000
    7  AS 1  X   -0.000000  -0.000080  -0.000069  -0.000000  -0.000080
    8  AS 1  Y    0.000000   0.000069  -0.000080  -0.000000  -0.000201
    9  AS 1  Z    0.000001   0.000000   0.000000   0.000031   0.000000
   10  AS 1  X    0.000000   0.738018   0.636216   0.000000  -0.000391
   11  AS 1  Y    0.000000  -0.636216   0.738018   0.000000  -0.000979
   12  AS 1  Z   -0.000073   0.000000  -0.000000   0.975679   0.000000
   13  AS 1  X   -0.000000  -0.000757  -0.000653  -0.000000  -0.001730
   14  AS 1  Y    0.000000   0.000653  -0.000757  -0.000000  -0.004331
   15  AS 1  Z    0.000009   0.000000   0.000000   0.000431  -0.000000
   16  AS 1  X    0.000000   0.036201   0.031207   0.000000   0.000701
   17  AS 1  Y    0.000000  -0.031207   0.036201   0.000000   0.001756
   18  AS 1  Z   -0.000015   0.000000  -0.000000   0.046644  -0.000000
   19  AS 1  X   -0.000000   0.001566   0.001350  -0.000000   0.000950
   20  AS 1  Y    0.000000  -0.001350   0.001566   0.000000   0.002379
   21  AS 1  Z   -0.000005   0.000000  -0.000000   0.001652  -0.000000
   22  AS 1 XX    0.000324   0.000461   0.000397   0.000021  -0.310586
   23  AS 1 YY    0.000324  -0.000461  -0.000397   0.000021   0.310586
   24  AS 1 ZZ   -0.000647   0.000000   0.000000  -0.000043   0.000000
   25  AS 1 XY    0.000000   0.000459  -0.000532  -0.000000   0.897700
   26  AS 1 XZ   -0.000000  -0.000032  -0.000028  -0.000000   0.001257
   27  AS 1 YZ   -0.000000   0.000028  -0.000032   0.000000   0.003147
   28  AS 1 XX    0.000051  -0.000251  -0.000216   0.000004  -0.027193
   29  AS 1 YY    0.000051   0.000251   0.000216   0.000004   0.027193
   30  AS 1 ZZ   -0.000101   0.000000   0.000000  -0.000007   0.000000
   31  AS 1 XY    0.000000  -0.000249   0.000289  -0.000000   0.078599
   32  AS 1 XZ    0.000000  -0.000002  -0.000002   0.000000   0.000109
   33  AS 1 YZ    0.000000   0.000002  -0.000002  -0.000000   0.000274
   34  AS 1 XX   -0.000015  -0.000162  -0.000140  -0.000000  -0.000168
   35  AS 1 YY   -0.000015   0.000162   0.000140  -0.000000   0.000168
   36  AS 1 ZZ    0.000031   0.000000   0.000000   0.000001  -0.000000
   37  AS 1 XY    0.000000  -0.000161   0.000187   0.000000   0.000484
   38  AS 1 XZ   -0.000000   0.000005   0.000004  -0.000000   0.000004
   39  AS 1 YZ   -0.000000  -0.000004   0.000005   0.000000   0.000010
   40  AS 1 XXX   0.000049   0.000040   0.000035   0.000002  -0.000163
   41  AS 1 YYY   0.000000  -0.000035   0.000040   0.000000  -0.000409
   42  AS 1 ZZZ   0.000000  -0.000000   0.000000  -0.000215   0.000000
   43  AS 1 XXY   0.000000  -0.000016   0.000018  -0.000000  -0.000183
   44  AS 1 XXZ  -0.000000   0.000001   0.000001   0.000144   0.000010
   45  AS 1 YYX  -0.000066   0.000018   0.000016  -0.000003  -0.000073
   46  AS 1 YYZ  -0.000000  -0.000001  -0.000001   0.000144  -0.000010
   47  AS 1 ZZX   0.000000  -0.000072  -0.000062   0.000000   0.000292
   48  AS 1 ZZY  -0.000000   0.000062  -0.000072  -0.000000   0.000732
   49  AS 1 XYZ   0.000000   0.000001  -0.000001   0.000000  -0.000029
   50  H  2  S    0.000002  -0.000405   0.000141  -0.000001  -0.003425
   51  H  2  S    0.000333  -0.001881   0.000656  -0.000010  -0.001649
   52  H  2  S   -0.000677   0.000657  -0.000229   0.000004  -0.001063
   53  H  2  X   -0.000004  -0.000010   0.000026  -0.000000  -0.000194
   54  H  2  Y    0.000006   0.000034   0.000001   0.000000   0.001043
   55  H  2  Z   -0.000000  -0.000000   0.000000   0.000011  -0.000003
   56  H  2  X    0.000006  -0.000206   0.000170  -0.000002   0.000731
   57  H  2  Y   -0.000010   0.000428  -0.000092   0.000004   0.000326
   58  H  2  Z   -0.000000  -0.000001   0.000000   0.000124  -0.000005
   59  H  2 XX   -0.000004   0.000034  -0.000040   0.000000   0.000281
   60  H  2 YY    0.000025  -0.000120   0.000070  -0.000001  -0.000579
   61  H  2 ZZ   -0.000021   0.000087  -0.000030   0.000000   0.000298
   62  H  2 XY   -0.000029   0.000177  -0.000043   0.000001   0.000369
   63  H  2 XZ    0.000000  -0.000001  -0.000000  -0.000018  -0.000000
   64  H  2 YZ   -0.000000   0.000001  -0.000001   0.000030   0.000006
   65  H  3  S    0.000002   0.000080  -0.000422  -0.000001   0.005478
   66  H  3  S    0.000333   0.000372  -0.001957  -0.000010   0.002638
   67  H  3  S   -0.000677  -0.000130   0.000684   0.000004   0.001700
   68  H  3  X   -0.000004   0.000024  -0.000014  -0.000000   0.000744
   69  H  3  Y   -0.000006  -0.000006  -0.000034  -0.000000   0.001418
   70  H  3  Z   -0.000000   0.000000  -0.000000   0.000011   0.000005
   71  H  3  X    0.000006   0.000138  -0.000229  -0.000002  -0.000192
   72  H  3  Y    0.000010   0.000028  -0.000437  -0.000004  -0.000043
   73  H  3  Z   -0.000000   0.000000  -0.000001   0.000124   0.000008
   74  H  3 XX   -0.000004  -0.000035   0.000039   0.000000  -0.000188
   75  H  3 YY    0.000025   0.000052  -0.000130  -0.000001   0.000665
   76  H  3 ZZ   -0.000021  -0.000017   0.000090   0.000000  -0.000477
   77  H  3 XY    0.000029   0.000016  -0.000182  -0.000001   0.000764
   78  H  3 XZ    0.000000  -0.000000  -0.000001  -0.000018   0.000004
   79  H  3 YZ    0.000000   0.000000  -0.000001  -0.000030   0.000008
   80  H  4  S    0.000002   0.000325   0.000280  -0.000001  -0.002054
   81  H  4  S    0.000333   0.001509   0.001301  -0.000010  -0.000989
   82  H  4  S   -0.000677  -0.000527  -0.000454   0.000004  -0.000637
   83  H  4  X    0.000007  -0.000028  -0.000024   0.000000   0.000600
   84  H  4  Y    0.000000  -0.000016   0.000018  -0.000000   0.000418
   85  H  4  Z   -0.000000   0.000000   0.000000   0.000011  -0.000002
   86  H  4  X   -0.000011  -0.000380  -0.000327   0.000004  -0.000050
   87  H  4  Y   -0.000000  -0.000070   0.000081   0.000000   0.000942
   88  H  4  Z   -0.000000   0.000001   0.000001   0.000124  -0.000003
   89  H  4 XX    0.000040   0.000173   0.000149  -0.000001  -0.000384
   90  H  4 YY   -0.000018  -0.000103  -0.000089   0.000001   0.000205
   91  H  4 ZZ   -0.000021  -0.000070  -0.000060   0.000000   0.000179
   92  H  4 XY   -0.000000  -0.000023   0.000027   0.000000  -0.000290
   93  H  4 XZ   -0.000000  -0.000001  -0.000001   0.000035   0.000003
   94  H  4 YZ    0.000000   0.000000  -0.000000  -0.000000   0.000004

                     11         12         13         14         15
                   -2.4338    -2.4296    -2.4287    -2.4287     1.9719
                     A          A          A          A          A   
    1  AS 1  S    0.000000  -0.000096   0.000000   0.000000   0.000444
    2  AS 1  S    0.000000  -0.000644   0.000000  -0.000000   0.002665
    3  AS 1  S    0.000000  -0.001509   0.000000  -0.000000   0.004370
    4  AS 1  S    0.000000  -0.003272   0.000000  -0.000000   0.556866
    5  AS 1  S    0.000000   0.000596  -0.000000  -0.000000   0.235464
    6  AS 1  S    0.000000   0.003473  -0.000000  -0.000000   0.130893
    7  AS 1  X    0.000201  -0.000000   0.000004   0.000003   0.000000
    8  AS 1  Y   -0.000080   0.000000  -0.000003   0.000004  -0.000000
    9  AS 1  Z    0.000000   0.000004   0.000000   0.000000   0.000009
   10  AS 1  X    0.000979  -0.000000   0.000067   0.000053   0.000000
   11  AS 1  Y   -0.000391   0.000000  -0.000053   0.000067   0.000000
   12  AS 1  Z    0.000000   0.000070   0.000000  -0.000000   0.000135
   13  AS 1  X    0.004331   0.000000   0.000020   0.000016   0.000000
   14  AS 1  Y   -0.001730   0.000000  -0.000016   0.000020   0.000000
   15  AS 1  Z    0.000000   0.000071   0.000000  -0.000000   0.000008
   16  AS 1  X   -0.001756   0.000000  -0.000037  -0.000030   0.000000
   17  AS 1  Y    0.000701  -0.000000   0.000030  -0.000037  -0.000000
   18  AS 1  Z    0.000000  -0.000019  -0.000000   0.000000  -0.000060
   19  AS 1  X   -0.002379  -0.000000   0.000009   0.000007   0.000000
   20  AS 1  Y    0.000950  -0.000000  -0.000007   0.000009   0.000000
   21  AS 1  Z   -0.000000   0.000012   0.000000   0.000000   0.000210
   22  AS 1 XX    0.777431  -0.484045   0.002303   0.001833  -0.014322
   23  AS 1 YY   -0.777431  -0.484045  -0.002303  -0.001833  -0.014322
   24  AS 1 ZZ   -0.000000   0.968089  -0.000000  -0.000000   0.028644
   25  AS 1 XY    0.358633  -0.000000   0.002117  -0.002660   0.000000
   26  AS 1 XZ   -0.003147   0.000000   0.757656   0.603078   0.000000
   27  AS 1 YZ    0.001257  -0.000000  -0.603078   0.757656   0.000000
   28  AS 1 XX    0.068068  -0.041111   0.000198   0.000158   0.008455
   29  AS 1 YY   -0.068068  -0.041111  -0.000198  -0.000158   0.008455
   30  AS 1 ZZ   -0.000000   0.082223  -0.000000  -0.000000  -0.016910
   31  AS 1 XY    0.031400  -0.000000   0.000182  -0.000229   0.000000
   32  AS 1 XZ   -0.000274   0.000000   0.064323   0.051200   0.000000
   33  AS 1 YZ    0.000109  -0.000000  -0.051200   0.064323   0.000000
   34  AS 1 XX    0.000419  -0.000672   0.000017   0.000014   0.004367
   35  AS 1 YY   -0.000419  -0.000672  -0.000017  -0.000014   0.004367
   36  AS 1 ZZ   -0.000000   0.001344   0.000000   0.000000  -0.008734
   37  AS 1 XY    0.000193   0.000000   0.000016  -0.000020  -0.000000
   38  AS 1 XZ   -0.000010  -0.000000   0.000752   0.000599  -0.000000
   39  AS 1 YZ    0.000004  -0.000000  -0.000599   0.000752   0.000000
   40  AS 1 XXX   0.000409  -0.001017   0.000013   0.000010   0.013468
   41  AS 1 YYY  -0.000163   0.000000  -0.000010   0.000013  -0.000000
   42  AS 1 ZZZ   0.000000  -0.000030  -0.000000   0.000000   0.000081
   43  AS 1 XXY  -0.000073  -0.000000  -0.000005   0.000006   0.000000
   44  AS 1 XXZ  -0.000025   0.000020   0.000185   0.000147  -0.000054
   45  AS 1 YYX   0.000183   0.001364   0.000006   0.000005  -0.018070
   46  AS 1 YYZ   0.000025   0.000020  -0.000185  -0.000147  -0.000054
   47  AS 1 ZZX  -0.000732  -0.000000  -0.000023  -0.000018  -0.000000
   48  AS 1 ZZY   0.000292  -0.000000   0.000018  -0.000023  -0.000000
   49  AS 1 XYZ  -0.000011  -0.000000   0.000170  -0.000213  -0.000000
   50  H  2  S   -0.004348  -0.002814   0.000024  -0.000009   0.074525
   51  H  2  S   -0.002094  -0.000901   0.000057  -0.000023   0.107611
   52  H  2  S   -0.001349  -0.000355   0.000018  -0.000007   0.010135
   53  H  2  X   -0.000876  -0.000444   0.000003  -0.000004   0.003494
   54  H  2  Y    0.000961   0.000769  -0.000008   0.000001  -0.006051
   55  H  2  Z   -0.000004  -0.000006  -0.000413   0.000162   0.000024
   56  H  2  X   -0.000491   0.000064   0.000008  -0.000011   0.006363
   57  H  2  Y   -0.000405  -0.000111  -0.000019   0.000003  -0.011021
   58  H  2  Z   -0.000007  -0.000010  -0.001067   0.000420   0.000043
   59  H  2 XX   -0.000022  -0.000016   0.000000  -0.000003   0.000015
   60  H  2 YY   -0.000357  -0.000386   0.000005   0.000001   0.001571
   61  H  2 ZZ    0.000379   0.000402  -0.000006   0.000002  -0.001587
   62  H  2 XY    0.000721   0.000370  -0.000003   0.000003  -0.001556
   63  H  2 XZ   -0.000006  -0.000004  -0.000163   0.000160   0.000006
   64  H  2 YZ    0.000005   0.000007   0.000358  -0.000085  -0.000010
   65  H  3  S   -0.000792  -0.002814  -0.000004   0.000025   0.074525
   66  H  3  S   -0.000381  -0.000901  -0.000009   0.000061   0.107611
   67  H  3  S   -0.000246  -0.000355  -0.000003   0.000019   0.010135
   68  H  3  X   -0.000502  -0.000444  -0.000004   0.000004   0.003494
   69  H  3  Y    0.000023  -0.000769   0.000001   0.000008   0.006051
   70  H  3  Z   -0.000001  -0.000006   0.000066  -0.000439   0.000024
   71  H  3  X   -0.000860   0.000064  -0.000009   0.000010   0.006363
   72  H  3  Y    0.000518   0.000111   0.000002   0.000020   0.011021
   73  H  3  Z   -0.000001  -0.000010   0.000170  -0.001134   0.000043
   74  H  3 XX   -0.000210  -0.000016  -0.000003   0.000001   0.000015
   75  H  3 YY    0.000141  -0.000386   0.000002   0.000005   0.001571
   76  H  3 ZZ    0.000069   0.000402   0.000001  -0.000006  -0.001587
   77  H  3 XY   -0.000268  -0.000370  -0.000002   0.000003   0.001556
   78  H  3 XZ   -0.000004  -0.000004   0.000120  -0.000195   0.000006
   79  H  3 YZ    0.000001  -0.000007   0.000003  -0.000368   0.000010
   80  H  4  S    0.005140  -0.002814  -0.000020  -0.000016   0.074525
   81  H  4  S    0.002475  -0.000901  -0.000048  -0.000038   0.107611
   82  H  4  S    0.001595  -0.000355  -0.000015  -0.000012   0.010135
   83  H  4  X   -0.001501   0.000888   0.000007   0.000006  -0.006987
   84  H  4  Y    0.000167  -0.000000   0.000002  -0.000003  -0.000000
   85  H  4  Z    0.000005  -0.000006   0.000347   0.000276   0.000024
   86  H  4  X    0.000125  -0.000129   0.000017   0.000014  -0.012726
   87  H  4  Y    0.000376  -0.000000   0.000005  -0.000007   0.000000
   88  H  4  Z    0.000008  -0.000010   0.000897   0.000714   0.000043
   89  H  4 XX    0.000962  -0.000571  -0.000005  -0.000004   0.002349
   90  H  4 YY   -0.000514   0.000169   0.000000   0.000000  -0.000763
   91  H  4 ZZ   -0.000448   0.000402   0.000005   0.000004  -0.001587
   92  H  4 XY   -0.000116  -0.000000  -0.000002   0.000003  -0.000000
   93  H  4 XZ   -0.000008   0.000008  -0.000329  -0.000262  -0.000012
   94  H  4 YZ    0.000001  -0.000000  -0.000064   0.000081  -0.000000

                     16         17         18         19         20
                    1.7203     1.7203     1.2381     0.2905     0.0294
                     A          A          A          A          A   
    1  AS 1  S   -0.000000  -0.000000   0.000008   0.001257   0.000000
    2  AS 1  S   -0.000000  -0.000000   0.000063   0.009555   0.000000
    3  AS 1  S   -0.000000  -0.000000   0.000382   0.063201   0.000000
    4  AS 1  S    0.000000   0.000000   0.002994   0.491276   0.000000
    5  AS 1  S    0.000000   0.000000   0.001466   0.249909  -0.000000
    6  AS 1  S    0.000000  -0.000000   0.002568   0.661272   0.000000
    7  AS 1  X    0.002851   0.002807   0.000000  -0.000000  -0.000112
    8  AS 1  Y    0.002807  -0.002851   0.000000  -0.000000   0.014236
    9  AS 1  Z    0.000000   0.000000  -0.000249  -0.000034   0.000000
   10  AS 1  X    0.037969   0.037390  -0.000000  -0.000000  -0.001506
   11  AS 1  Y    0.037390  -0.037969   0.000000   0.000000   0.192216
   12  AS 1  Z    0.000000  -0.000000  -0.001190  -0.000465   0.000000
   13  AS 1  X   -0.259485  -0.255530  -0.000000  -0.000000  -0.007678
   14  AS 1  Y   -0.255530   0.259485   0.000000   0.000000   0.980277
   15  AS 1  Z    0.000000  -0.000000   0.613172  -0.004462   0.000000
   16  AS 1  X   -0.119055  -0.117241   0.000000   0.000000  -0.002067
   17  AS 1  Y   -0.117241   0.119055   0.000000  -0.000000   0.263896
   18  AS 1  Z   -0.000000   0.000000   0.226748  -0.001352  -0.000000
   19  AS 1  X   -0.046974  -0.046258  -0.000000  -0.000000  -0.001656
   20  AS 1  Y   -0.046258   0.046974  -0.000000   0.000000   0.211498
   21  AS 1  Z   -0.000000   0.000000   0.294888  -0.003518  -0.000000
   22  AS 1 XX    0.038226   0.037643   0.000098   0.057918  -0.000816
   23  AS 1 YY   -0.038226  -0.037643   0.000098   0.057918   0.000816
   24  AS 1 ZZ    0.000000   0.000000  -0.000196  -0.115837   0.000000
   25  AS 1 XY   -0.043467   0.044140   0.000000  -0.000000  -0.120297
   26  AS 1 XZ   -0.000350  -0.000345   0.000000  -0.000000   0.000016
   27  AS 1 YZ   -0.000345   0.000350   0.000000   0.000000  -0.002020
   28  AS 1 XX   -0.020183  -0.019875   0.000035  -0.047922   0.000474
   29  AS 1 YY    0.020183   0.019875   0.000035  -0.047922  -0.000474
   30  AS 1 ZZ   -0.000000   0.000000  -0.000070   0.095844  -0.000000
   31  AS 1 XY    0.022950  -0.023305  -0.000000   0.000000   0.069893
   32  AS 1 XZ    0.000146   0.000143  -0.000000   0.000000  -0.000018
   33  AS 1 YZ    0.000143  -0.000146  -0.000000  -0.000000   0.002264
   34  AS 1 XX   -0.015119  -0.014888   0.000217  -0.092530  -0.000325
   35  AS 1 YY    0.015119   0.014888   0.000217  -0.092530   0.000325
   36  AS 1 ZZ   -0.000000  -0.000000  -0.000434   0.185059  -0.000000
   37  AS 1 XY    0.017191  -0.017457   0.000000   0.000000  -0.047897
   38  AS 1 XZ    0.000103   0.000102   0.000000  -0.000000  -0.000017
   39  AS 1 YZ    0.000102  -0.000103   0.000000   0.000000   0.002231
   40  AS 1 XXX  -0.005573  -0.005488  -0.000172  -0.044031   0.000049
   41  AS 1 YYY  -0.005488   0.005573  -0.000000  -0.000000  -0.006250
   42  AS 1 ZZZ  -0.000000  -0.000000  -0.014267  -0.000516   0.000000
   43  AS 1 XXY  -0.002454   0.002492   0.000000   0.000000  -0.002795
   44  AS 1 XXZ   0.000074   0.000072   0.009571   0.000346  -0.000002
   45  AS 1 YYX  -0.002492  -0.002454   0.000231   0.059074   0.000022
   46  AS 1 YYZ  -0.000074  -0.000072   0.009571   0.000346   0.000002
   47  AS 1 ZZX   0.009970   0.009818  -0.000000   0.000000  -0.000088
   48  AS 1 ZZY   0.009818  -0.009970   0.000000  -0.000000   0.011180
   49  AS 1 XYZ  -0.000084   0.000085   0.000000   0.000000  -0.000347
   50  H  2  S   -0.040826   0.157182  -0.000890  -0.139354  -0.231972
   51  H  2  S   -0.071546   0.275456  -0.001886  -0.325775  -0.665052
   52  H  2  S   -0.020372   0.078432  -0.000867  -0.302566  -0.060666
   53  H  2  X   -0.003074   0.005126  -0.000020   0.000585  -0.001648
   54  H  2  Y    0.001554  -0.009857   0.000034  -0.001014   0.009921
   55  H  2  Z   -0.000010   0.000039   0.004526  -0.000032   0.000103
   56  H  2  X   -0.008200   0.011935  -0.000041  -0.000320  -0.041859
   57  H  2  Y    0.003169  -0.023538   0.000071   0.000555   0.110105
   58  H  2  Z   -0.000021   0.000081   0.023139   0.000050   0.000384
   59  H  2 XX   -0.001180  -0.000860  -0.000008  -0.000468   0.002761
   60  H  2 YY    0.000620   0.003017  -0.000021  -0.000020  -0.009683
   61  H  2 ZZ    0.000560  -0.002157   0.000029   0.000488   0.006922
   62  H  2 XY    0.001706  -0.002966   0.000013  -0.000448   0.006387
   63  H  2 XZ   -0.000003   0.000013   0.001328   0.000002   0.000071
   64  H  2 YZ    0.000006  -0.000023  -0.002300  -0.000004  -0.000050
   65  H  3  S    0.156537  -0.043235  -0.000890  -0.139354   0.229884
   66  H  3  S    0.274325  -0.075767  -0.001886  -0.325775   0.659064
   67  H  3  S    0.078110  -0.021574  -0.000867  -0.302566   0.060120
   68  H  3  X    0.005078  -0.003152  -0.000020   0.000585   0.001521
   69  H  3  Y    0.009832  -0.001706  -0.000034   0.001014   0.009896
   70  H  3  Z    0.000039  -0.000011   0.004526  -0.000032  -0.000102
   71  H  3  X    0.011808  -0.008382  -0.000041  -0.000320   0.040887
   72  H  3  Y    0.023487  -0.003530  -0.000071  -0.000555   0.109457
   73  H  3  Z    0.000080  -0.000022   0.023139   0.000050  -0.000380
   74  H  3 XX   -0.000878  -0.001167  -0.000008  -0.000468  -0.002819
   75  H  3 YY    0.003026   0.000574  -0.000021  -0.000020   0.009679
   76  H  3 ZZ   -0.002148   0.000593   0.000029   0.000488  -0.006860
   77  H  3 XY    0.002939  -0.001751  -0.000013   0.000448   0.006274
   78  H  3 XZ    0.000013  -0.000004   0.001328   0.000002  -0.000071
   79  H  3 YZ    0.000023  -0.000006   0.002300   0.000004  -0.000049
   80  H  4  S   -0.115711  -0.113947  -0.000890  -0.139354   0.002089
   81  H  4  S   -0.202779  -0.199688  -0.001886  -0.325775   0.005988
   82  H  4  S   -0.057739  -0.056859  -0.000867  -0.302566   0.000546
   83  H  4  X    0.008171   0.008046   0.000040  -0.001171  -0.000085
   84  H  4  Y   -0.001366   0.001387   0.000000  -0.000000   0.007164
   85  H  4  Z   -0.000029  -0.000028   0.004526  -0.000032  -0.000001
   86  H  4  X    0.019400   0.019104   0.000082   0.000641  -0.001047
   87  H  4  Y   -0.003999   0.004061  -0.000000  -0.000000   0.038121
   88  H  4  Z   -0.000059  -0.000058   0.023139   0.000050  -0.000003
   89  H  4 XX   -0.003145  -0.003097  -0.000027   0.000204   0.000102
   90  H  4 YY    0.001557   0.001533  -0.000002  -0.000692  -0.000040
   91  H  4 ZZ    0.001588   0.001564   0.000029   0.000488  -0.000062
   92  H  4 XY    0.001271  -0.001291   0.000000  -0.000000  -0.006141
   93  H  4 XZ    0.000019   0.000019  -0.002656  -0.000004   0.000001
   94  H  4 YZ   -0.000000   0.000000  -0.000000  -0.000000   0.000074

                     21
                    0.0294
                     A   
    1  AS 1  S   -0.000000
    2  AS 1  S   -0.000000
    3  AS 1  S   -0.000000
    4  AS 1  S   -0.000000
    5  AS 1  S    0.000000
    6  AS 1  S   -0.000000
    7  AS 1  X    0.014236
    8  AS 1  Y    0.000112
    9  AS 1  Z    0.000000
   10  AS 1  X    0.192216
   11  AS 1  Y    0.001506
   12  AS 1  Z    0.000000
   13  AS 1  X    0.980277
   14  AS 1  Y    0.007678
   15  AS 1  Z    0.000000
   16  AS 1  X    0.263896
   17  AS 1  Y    0.002067
   18  AS 1  Z   -0.000000
   19  AS 1  X    0.211498
   20  AS 1  Y    0.001656
   21  AS 1  Z    0.000000
   22  AS 1 XX    0.104180
   23  AS 1 YY   -0.104180
   24  AS 1 ZZ    0.000000
   25  AS 1 XY   -0.000942
   26  AS 1 XZ   -0.002020
   27  AS 1 YZ   -0.000016
   28  AS 1 XX   -0.060529
   29  AS 1 YY    0.060529
   30  AS 1 ZZ    0.000000
   31  AS 1 XY    0.000547
   32  AS 1 XZ    0.002264
   33  AS 1 YZ    0.000018
   34  AS 1 XX    0.041480
   35  AS 1 YY   -0.041480
   36  AS 1 ZZ   -0.000000
   37  AS 1 XY   -0.000375
   38  AS 1 XZ    0.002231
   39  AS 1 YZ    0.000017
   40  AS 1 XXX  -0.006250
   41  AS 1 YYY  -0.000049
   42  AS 1 ZZZ  -0.000000
   43  AS 1 XXY  -0.000022
   44  AS 1 XXZ   0.000300
   45  AS 1 YYX  -0.002795
   46  AS 1 YYZ  -0.000300
   47  AS 1 ZZX   0.011180
   48  AS 1 ZZY   0.000088
   49  AS 1 XYZ  -0.000003
   50  H  2  S    0.131518
   51  H  2  S    0.377054
   52  H  2  S    0.034395
   53  H  2  X    0.008066
   54  H  2  Y   -0.001507
   55  H  2  Z   -0.000058
   56  H  2  X    0.061683
   57  H  2  Y   -0.040513
   58  H  2  Z   -0.000218
   59  H  2 XX    0.003729
   60  H  2 YY    0.000195
   61  H  2 ZZ   -0.003925
   62  H  2 XY   -0.007151
   63  H  2 XZ    0.000034
   64  H  2 YZ    0.000071
   65  H  3  S    0.135135
   66  H  3  S    0.387425
   67  H  3  S    0.035341
   68  H  3  X    0.008091
   69  H  3  Y    0.001662
   70  H  3  Z   -0.000060
   71  H  3  X    0.062331
   72  H  3  Y    0.042233
   73  H  3  Z   -0.000224
   74  H  3 XX    0.003685
   75  H  3 YY    0.000347
   76  H  3 ZZ   -0.004033
   77  H  3 XY    0.007250
   78  H  3 XZ    0.000032
   79  H  3 YZ   -0.000072
   80  H  4  S   -0.266653
   81  H  4  S   -0.764478
   82  H  4  S   -0.069736
   83  H  4  X    0.010823
   84  H  4  Y    0.000056
   85  H  4  Z    0.000118
   86  H  4  X    0.133668
   87  H  4  Y    0.000299
   88  H  4  Z    0.000441
   89  H  4 XX   -0.013061
   90  H  4 YY    0.005104
   91  H  4 ZZ    0.007957
   92  H  4 XY   -0.000048
   93  H  4 XZ   -0.000090
   94  H  4 YZ    0.000001

          ------------------------
          MCSCF OPTIMIZED ORBITALS
          ------------------------

                      1          2          3          4          5
                 -432.8954   -56.6209   -50.4654   -50.4653   -50.4653
                     A          A          A          A          A   
    1  AS 1  S    0.999999   0.000003  -0.000000  -0.000000   0.000000
    2  AS 1  S    0.000001   1.000103   0.000012  -0.000000   0.000000
    3  AS 1  S   -0.000004   0.000135  -0.000002  -0.000000   0.000000
    4  AS 1  S   -0.000005   0.000143  -0.000001  -0.000000   0.000000
    5  AS 1  S    0.000016  -0.000426   0.000001  -0.000000  -0.000000
    6  AS 1  S    0.000005  -0.000140   0.000001  -0.000000   0.000000
    7  AS 1  X    0.000000   0.000000  -0.000001   0.996525   0.083592
    8  AS 1  Y    0.000000  -0.000000  -0.000000  -0.083592   0.996525
    9  AS 1  Z   -0.000000  -0.000013   1.000026   0.000001   0.000000
   10  AS 1  X   -0.000000  -0.000000  -0.000000  -0.000003  -0.000000
   11  AS 1  Y    0.000000  -0.000000   0.000000   0.000000  -0.000003
   12  AS 1  Z    0.000000  -0.000001   0.000001   0.000000  -0.000000
   13  AS 1  X   -0.000000  -0.000000   0.000000  -0.000088  -0.000007
   14  AS 1  Y    0.000000  -0.000000   0.000000   0.000007  -0.000088
   15  AS 1  Z    0.000000  -0.000000  -0.000002  -0.000000  -0.000000
   16  AS 1  X    0.000000  -0.000000   0.000000  -0.000499  -0.000042
   17  AS 1  Y    0.000000   0.000000  -0.000000   0.000042  -0.000499
   18  AS 1  Z   -0.000000   0.000000  -0.000447  -0.000000  -0.000000
   19  AS 1  X    0.000000   0.000000   0.000000  -0.000090  -0.000008
   20  AS 1  Y    0.000000  -0.000000  -0.000000   0.000008  -0.000090
   21  AS 1  Z   -0.000000   0.000000  -0.000069  -0.000000   0.000000
   22  AS 1 XX    0.000000  -0.000001   0.000001   0.000002   0.000000
   23  AS 1 YY    0.000000  -0.000001   0.000001  -0.000002  -0.000000
   24  AS 1 ZZ   -0.000000   0.000001  -0.000001  -0.000000   0.000000
   25  AS 1 XY    0.000000  -0.000000  -0.000000   0.000000  -0.000002
   26  AS 1 XZ    0.000000  -0.000000  -0.000000  -0.000001  -0.000000
   27  AS 1 YZ    0.000000   0.000000  -0.000000   0.000000  -0.000001
   28  AS 1 XX    0.000000  -0.000002  -0.000000  -0.000055  -0.000005
   29  AS 1 YY    0.000000  -0.000002  -0.000000   0.000055   0.000005
   30  AS 1 ZZ   -0.000000   0.000004   0.000000   0.000000  -0.000000
   31  AS 1 XY   -0.000000  -0.000000  -0.000000  -0.000005   0.000064
   32  AS 1 XZ    0.000000  -0.000000  -0.000000   0.000001   0.000000
   33  AS 1 YZ    0.000000  -0.000000  -0.000000  -0.000000   0.000001
   34  AS 1 XX    0.000000  -0.000002   0.000000  -0.000016  -0.000001
   35  AS 1 YY    0.000000  -0.000002   0.000000   0.000016   0.000001
   36  AS 1 ZZ   -0.000000   0.000004  -0.000000  -0.000000  -0.000000
   37  AS 1 XY   -0.000000   0.000000   0.000000  -0.000002   0.000018
   38  AS 1 XZ    0.000000   0.000000  -0.000000  -0.000000  -0.000000
   39  AS 1 YZ    0.000000   0.000000  -0.000000   0.000000  -0.000000
   40  AS 1 XXX   0.000000  -0.000006  -0.000000  -0.000013  -0.000001
   41  AS 1 YYY   0.000000   0.000000  -0.000000   0.000001  -0.000013
   42  AS 1 ZZZ   0.000000  -0.000000  -0.000000  -0.000000   0.000000
   43  AS 1 XXY   0.000000  -0.000000   0.000000   0.000000  -0.000006
   44  AS 1 XXZ  -0.000000   0.000000   0.000000   0.000000   0.000000
   45  AS 1 YYX  -0.000000   0.000008   0.000000  -0.000006  -0.000000
   46  AS 1 YYZ  -0.000000   0.000000   0.000000  -0.000000  -0.000000
   47  AS 1 ZZX  -0.000000  -0.000000  -0.000000   0.000023   0.000002
   48  AS 1 ZZY  -0.000000  -0.000000  -0.000000  -0.000002   0.000023
   49  AS 1 XYZ   0.000000  -0.000000   0.000000   0.000000  -0.000000
   50  H  2  S   -0.000000   0.000006   0.000000   0.000008  -0.000012
   51  H  2  S   -0.000000   0.000011   0.000000  -0.000040   0.000058
   52  H  2  S   -0.000001   0.000029  -0.000000  -0.000027   0.000039
   53  H  2  X   -0.000000   0.000002  -0.000000  -0.000005   0.000007
   54  H  2  Y    0.000000  -0.000003   0.000000   0.000008  -0.000012
   55  H  2  Z   -0.000000   0.000000   0.000001  -0.000000   0.000000
   56  H  2  X   -0.000000   0.000004   0.000000  -0.000022   0.000029
   57  H  2  Y    0.000000  -0.000008  -0.000000   0.000035  -0.000051
   58  H  2  Z   -0.000000   0.000000  -0.000005  -0.000000   0.000000
   59  H  2 XX    0.000000  -0.000001  -0.000000   0.000005  -0.000002
   60  H  2 YY   -0.000000   0.000005  -0.000000  -0.000018   0.000020
   61  H  2 ZZ    0.000000  -0.000004   0.000000   0.000013  -0.000018
   62  H  2 XY    0.000000  -0.000006   0.000000   0.000016  -0.000027
   63  H  2 XZ   -0.000000   0.000000   0.000003  -0.000000   0.000000
   64  H  2 YZ    0.000000  -0.000000  -0.000005   0.000000  -0.000000
   65  H  3  S   -0.000000   0.000006   0.000000   0.000006   0.000013
   66  H  3  S   -0.000000   0.000011   0.000000  -0.000030  -0.000063
   67  H  3  S   -0.000001   0.000029  -0.000000  -0.000020  -0.000043
   68  H  3  X   -0.000000   0.000002  -0.000000  -0.000004  -0.000007
   69  H  3  Y   -0.000000   0.000003  -0.000000  -0.000006  -0.000013
   70  H  3  Z   -0.000000   0.000000   0.000001  -0.000000  -0.000000
   71  H  3  X   -0.000000   0.000004   0.000000  -0.000017  -0.000032
   72  H  3  Y   -0.000000   0.000008   0.000000  -0.000026  -0.000057
   73  H  3  Z   -0.000000   0.000000  -0.000005  -0.000000  -0.000000
   74  H  3 XX    0.000000  -0.000001  -0.000000   0.000005   0.000003
   75  H  3 YY   -0.000000   0.000005  -0.000000  -0.000014  -0.000023
   76  H  3 ZZ    0.000000  -0.000004   0.000000   0.000009   0.000020
   77  H  3 XY   -0.000000   0.000006  -0.000000  -0.000011  -0.000029
   78  H  3 XZ   -0.000000   0.000000   0.000003  -0.000000  -0.000000
   79  H  3 YZ   -0.000000   0.000000   0.000005  -0.000000  -0.000000
   80  H  4  S   -0.000000   0.000006   0.000000  -0.000014  -0.000001
   81  H  4  S   -0.000000   0.000011   0.000000   0.000070   0.000006
   82  H  4  S   -0.000001   0.000029  -0.000000   0.000047   0.000004
   83  H  4  X    0.000000  -0.000004   0.000000  -0.000017  -0.000001
   84  H  4  Y    0.000000  -0.000000  -0.000000   0.000000  -0.000001
   85  H  4  Z   -0.000000   0.000000   0.000001   0.000000   0.000000
   86  H  4  X    0.000000  -0.000009  -0.000000  -0.000071  -0.000006
   87  H  4  Y    0.000000   0.000000  -0.000000   0.000000  -0.000002
   88  H  4  Z   -0.000000   0.000000  -0.000005   0.000000   0.000000
   89  H  4 XX   -0.000000   0.000008  -0.000000   0.000042   0.000004
   90  H  4 YY    0.000000  -0.000004   0.000000  -0.000020  -0.000002
   91  H  4 ZZ    0.000000  -0.000004   0.000000  -0.000022  -0.000002
   92  H  4 XY   -0.000000  -0.000000  -0.000000   0.000000  -0.000004
   93  H  4 XZ    0.000000  -0.000000  -0.000006  -0.000000  -0.000000
   94  H  4 YZ    0.000000  -0.000000  -0.000000  -0.000000   0.000000

                      6          7          8          9         10
                   -8.3450    -6.1998    -6.1998    -6.1964    -2.4338
                     A          A          A          A          A   
    1  AS 1  S   -0.000085   0.000000  -0.000000   0.000002   0.000000
    2  AS 1  S   -0.000609   0.000000  -0.000000   0.000017   0.000000
    3  AS 1  S    0.975257  -0.000000  -0.000000   0.000138   0.000000
    4  AS 1  S   -0.001924   0.000000  -0.000000   0.000055   0.000000
    5  AS 1  S    0.036270  -0.000000   0.000000  -0.000039  -0.000000
    6  AS 1  S    0.004132   0.000000   0.000000  -0.000017   0.000000
    7  AS 1  X   -0.000000  -0.000080  -0.000069  -0.000000  -0.000080
    8  AS 1  Y    0.000000   0.000069  -0.000080  -0.000000  -0.000201
    9  AS 1  Z    0.000001   0.000000   0.000000   0.000031   0.000000
   10  AS 1  X    0.000000   0.738018   0.636216   0.000000  -0.000391
   11  AS 1  Y    0.000000  -0.636216   0.738018   0.000000  -0.000979
   12  AS 1  Z   -0.000073   0.000000  -0.000000   0.975679   0.000000
   13  AS 1  X   -0.000000  -0.000757  -0.000653  -0.000000  -0.001730
   14  AS 1  Y    0.000000   0.000653  -0.000757  -0.000000  -0.004331
   15  AS 1  Z    0.000009   0.000000   0.000000   0.000431  -0.000000
   16  AS 1  X    0.000000   0.036201   0.031207   0.000000   0.000701
   17  AS 1  Y    0.000000  -0.031207   0.036201   0.000000   0.001756
   18  AS 1  Z   -0.000015   0.000000  -0.000000   0.046644  -0.000000
   19  AS 1  X   -0.000000   0.001566   0.001350  -0.000000   0.000950
   20  AS 1  Y    0.000000  -0.001350   0.001566   0.000000   0.002379
   21  AS 1  Z   -0.000005   0.000000  -0.000000   0.001652  -0.000000
   22  AS 1 XX    0.000324   0.000461   0.000397   0.000021  -0.310586
   23  AS 1 YY    0.000324  -0.000461  -0.000397   0.000021   0.310586
   24  AS 1 ZZ   -0.000647   0.000000   0.000000  -0.000043   0.000000
   25  AS 1 XY    0.000000   0.000459  -0.000532  -0.000000   0.897700
   26  AS 1 XZ   -0.000000  -0.000032  -0.000028  -0.000000   0.001257
   27  AS 1 YZ   -0.000000   0.000028  -0.000032   0.000000   0.003147
   28  AS 1 XX    0.000051  -0.000251  -0.000216   0.000004  -0.027193
   29  AS 1 YY    0.000051   0.000251   0.000216   0.000004   0.027193
   30  AS 1 ZZ   -0.000101   0.000000   0.000000  -0.000007   0.000000
   31  AS 1 XY    0.000000  -0.000249   0.000289  -0.000000   0.078599
   32  AS 1 XZ    0.000000  -0.000002  -0.000002   0.000000   0.000109
   33  AS 1 YZ    0.000000   0.000002  -0.000002  -0.000000   0.000274
   34  AS 1 XX   -0.000015  -0.000162  -0.000140  -0.000000  -0.000168
   35  AS 1 YY   -0.000015   0.000162   0.000140  -0.000000   0.000168
   36  AS 1 ZZ    0.000031   0.000000   0.000000   0.000001  -0.000000
   37  AS 1 XY    0.000000  -0.000161   0.000187   0.000000   0.000484
   38  AS 1 XZ   -0.000000   0.000005   0.000004  -0.000000   0.000004
   39  AS 1 YZ   -0.000000  -0.000004   0.000005   0.000000   0.000010
   40  AS 1 XXX   0.000049   0.000040   0.000035   0.000002  -0.000163
   41  AS 1 YYY   0.000000  -0.000035   0.000040   0.000000  -0.000409
   42  AS 1 ZZZ   0.000000  -0.000000   0.000000  -0.000215   0.000000
   43  AS 1 XXY   0.000000  -0.000016   0.000018  -0.000000  -0.000183
   44  AS 1 XXZ  -0.000000   0.000001   0.000001   0.000144   0.000010
   45  AS 1 YYX  -0.000066   0.000018   0.000016  -0.000003  -0.000073
   46  AS 1 YYZ  -0.000000  -0.000001  -0.000001   0.000144  -0.000010
   47  AS 1 ZZX   0.000000  -0.000072  -0.000062   0.000000   0.000292
   48  AS 1 ZZY  -0.000000   0.000062  -0.000072  -0.000000   0.000732
   49  AS 1 XYZ   0.000000   0.000001  -0.000001   0.000000  -0.000029
   50  H  2  S    0.000002  -0.000405   0.000141  -0.000001  -0.003425
   51  H  2  S    0.000333  -0.001881   0.000656  -0.000010  -0.001649
   52  H  2  S   -0.000677   0.000657  -0.000229   0.000004  -0.001063
   53  H  2  X   -0.000004  -0.000010   0.000026  -0.000000  -0.000194
   54  H  2  Y    0.000006   0.000034   0.000001   0.000000   0.001043
   55  H  2  Z   -0.000000  -0.000000   0.000000   0.000011  -0.000003
   56  H  2  X    0.000006  -0.000206   0.000170  -0.000002   0.000731
   57  H  2  Y   -0.000010   0.000428  -0.000092   0.000004   0.000326
   58  H  2  Z   -0.000000  -0.000001   0.000000   0.000124  -0.000005
   59  H  2 XX   -0.000004   0.000034  -0.000040   0.000000   0.000281
   60  H  2 YY    0.000025  -0.000120   0.000070  -0.000001  -0.000579
   61  H  2 ZZ   -0.000021   0.000087  -0.000030   0.000000   0.000298
   62  H  2 XY   -0.000029   0.000177  -0.000043   0.000001   0.000369
   63  H  2 XZ    0.000000  -0.000001  -0.000000  -0.000018  -0.000000
   64  H  2 YZ   -0.000000   0.000001  -0.000001   0.000030   0.000006
   65  H  3  S    0.000002   0.000080  -0.000422  -0.000001   0.005478
   66  H  3  S    0.000333   0.000372  -0.001957  -0.000010   0.002638
   67  H  3  S   -0.000677  -0.000130   0.000684   0.000004   0.001700
   68  H  3  X   -0.000004   0.000024  -0.000014  -0.000000   0.000744
   69  H  3  Y   -0.000006  -0.000006  -0.000034  -0.000000   0.001418
   70  H  3  Z   -0.000000   0.000000  -0.000000   0.000011   0.000005
   71  H  3  X    0.000006   0.000138  -0.000229  -0.000002  -0.000192
   72  H  3  Y    0.000010   0.000028  -0.000437  -0.000004  -0.000043
   73  H  3  Z   -0.000000   0.000000  -0.000001   0.000124   0.000008
   74  H  3 XX   -0.000004  -0.000035   0.000039   0.000000  -0.000188
   75  H  3 YY    0.000025   0.000052  -0.000130  -0.000001   0.000665
   76  H  3 ZZ   -0.000021  -0.000017   0.000090   0.000000  -0.000477
   77  H  3 XY    0.000029   0.000016  -0.000182  -0.000001   0.000764
   78  H  3 XZ    0.000000  -0.000000  -0.000001  -0.000018   0.000004
   79  H  3 YZ    0.000000   0.000000  -0.000001  -0.000030   0.000008
   80  H  4  S    0.000002   0.000325   0.000280  -0.000001  -0.002054
   81  H  4  S    0.000333   0.001509   0.001301  -0.000010  -0.000989
   82  H  4  S   -0.000677  -0.000527  -0.000454   0.000004  -0.000637
   83  H  4  X    0.000007  -0.000028  -0.000024   0.000000   0.000600
   84  H  4  Y    0.000000  -0.000016   0.000018  -0.000000   0.000418
   85  H  4  Z   -0.000000   0.000000   0.000000   0.000011  -0.000002
   86  H  4  X   -0.000011  -0.000380  -0.000327   0.000004  -0.000050
   87  H  4  Y   -0.000000  -0.000070   0.000081   0.000000   0.000942
   88  H  4  Z   -0.000000   0.000001   0.000001   0.000124  -0.000003
   89  H  4 XX    0.000040   0.000173   0.000149  -0.000001  -0.000384
   90  H  4 YY   -0.000018  -0.000103  -0.000089   0.000001   0.000205
   91  H  4 ZZ   -0.000021  -0.000070  -0.000060   0.000000   0.000179
   92  H  4 XY   -0.000000  -0.000023   0.000027   0.000000  -0.000290
   93  H  4 XZ   -0.000000  -0.000001  -0.000001   0.000035   0.000003
   94  H  4 YZ    0.000000   0.000000  -0.000000  -0.000000   0.000004

[...]
      526   -0.029202   -0.029202  ++220-0
      878   -0.028969   -0.028969  ++-2+0-
      458    0.027419   -0.027419  2+02+-0
      809   -0.027418    0.027418  20+2+0-
      323   -0.025875    0.025875  +022-+0
      320   -0.025715   -0.025715  0+22200
      264   -0.025632    0.025632  -++2-0+
      534   -0.025474   -0.025474  0+22020
      894   -0.025394   -0.025394  0+22002
      263    0.024423    0.024423  20+2-0+
      252   -0.024423   -0.024423  2+02-+0
      806    0.024248    0.024248  2++200-
      462   -0.022472    0.022472  2+02020
      529    0.021834    0.021834  +022+-0
       79   -0.021699   -0.021699  -+220+0
       54    0.021697   -0.021697  -2+200+

 ---------------------------------------
      - DIABATIC STATES IN CMO -        
 ---------------------------------------

 State #    1  Energy =   -2235.921748051

      Det      Coef        Coefp    Occupancy (Ignoring core)
      ---      ----        ----    --------- --------- -----
        1   -0.976677    0.976677  222+000
      107    0.073564   -0.073564  +22-+00
      179    0.060803    0.060803  202+200
      143    0.060803    0.060803  220+200
      357    0.059084    0.059084  220+020
      753    0.059084    0.059084  202+002
      211   -0.038247   -0.038247  +22+-00
        5   -0.035316   -0.035316  -22++00
       41    0.033491   -0.033491  22+-0+0
       86   -0.033491   -0.033491  2+2-00+
      228   -0.032567    0.032567  +-2+-0+
      217    0.032567    0.032567  +2-+-+0
      215    0.029797    0.029797  022+200
      740   -0.028426    0.028426  -+2++0-
      355    0.028426    0.028426  -2+++-0
      708   -0.026565    0.026565  2-++0+-
      402   -0.026565    0.026565  2+-+0-+
        7   -0.026170   -0.026170  22-+0+0
       18    0.026170   -0.026170  2-2+00+
      774    0.025768    0.025768  +-2++0-
      423   -0.025768    0.025768  +2-++-0
      149   -0.024292    0.024292  -2++-+0
      194    0.024292    0.024292  -+2+-0+
      704   -0.023798    0.023798  2-+++0-
      389    0.023798    0.023798  202++-0
      738    0.023798    0.023798  2+-++0-
      353   -0.023798   -0.023798  220++-0
      147    0.022236   -0.022236  220+-+0
      183   -0.022236    0.022236  202+-+0
      192   -0.022236    0.022236  2+-+-0+
      158    0.022236    0.022236  2-++-0+
      393    0.021976    0.021976  202+020
      717    0.021976    0.021976  220+002
      789    0.021558    0.021558  022+002
      429    0.021558    0.021558  022+020
      388   -0.021475   -0.021475  2+-++-0
      354    0.021475   -0.021475  2-+++-0
      703   -0.021475   -0.021475  220++0-
      739    0.021475    0.021475  202++0-
      193   -0.020066    0.020066  202+-0+
      182    0.020066   -0.020066  2+-+-+0
      157    0.020066   -0.020066  220+-0+
      148   -0.020066   -0.020066  2-++-+0

 State #    2  Energy =   -2235.728748109

      Det      Coef        Coefp    Occupancy (Ignoring core)
      ---      ----        ----    --------- --------- -----
        2   -0.951827    0.951827  2220+00
      106   -0.172533   -0.172533  +222000
      146   -0.080888    0.080888  22+0-+0
      191    0.080887    0.080887  2+20-0+
      352    0.077768    0.077768  22+0+-0
      737   -0.077768    0.077768  2+20+0-
      212    0.064050    0.064050  +220200
      756    0.060958    0.060958  2020+02
      360    0.060958    0.060958  2200+20
      110    0.057395   -0.057395  0222+00
      356   -0.036487   -0.036487  22+0020
      401    0.036485    0.036485  2+200-+
      741   -0.036484    0.036484  2+200+-
      716    0.036484    0.036484  22+0002
      751   -0.033651    0.033651  2+20002
      706   -0.033650   -0.033650  22+00+-
      366    0.033649   -0.033649  22+00-+
      391    0.033649   -0.033649  2+20020
       38    0.031280   -0.031280  2202+00
       74    0.031276   -0.031276  2022+00
      711   -0.026048    0.026048  2-+0++-
      405   -0.026048    0.026048  2+-0+-+
      396    0.025578    0.025578  2020+20
      720    0.025578    0.025578  2200+02
      220    0.022044    0.022044  +2-02+0
      231   -0.022044    0.022044  +-2020+
      152   -0.021103    0.021103  -2+02+0
      197    0.021103    0.021103  -+2020+
      161    0.020725    0.020725  2-+020+
      186   -0.020724    0.020724  20202+0
      195   -0.020724    0.020724  2+-020+
      150    0.020724   -0.020724  22002+0

 State #    3  Energy =   -2235.692927803

      Det      Coef        Coefp    Occupancy (Ignoring core)
      ---      ----        ----    --------- --------- -----
       36    0.674988    0.674988  22+2000
       71   -0.669231    0.669231  2+22000
       74   -0.101925    0.101925  2022+00
       38    0.101924   -0.101924  2202+00
      142   -0.085353   -0.085353  22+0200
      177    0.084625   -0.084625  2+20200
       16    0.083805   -0.083805  222000+
        6    0.082710   -0.082710  22200+0
       88   -0.065397    0.065397  202200+
       42   -0.065286    0.065286  22020+0
      123   -0.050919    0.050919  +-2200+
      112   -0.050919   -0.050919  +2-20+0
      249   -0.049239    0.049239  20+2200
      248    0.048819   -0.048819  2+02200
      108    0.039794    0.039794  +2-2+00
      109   -0.039455    0.039455  +-22+00
      462    0.037469   -0.037469  2+02020
      823   -0.037322    0.037322  20+2002
       52   -0.031489    0.031489  220200+
       78   -0.030335    0.030335  20220+0
      491    0.029213   -0.029213  +2+20-0
      876    0.029213    0.029213  ++2200-
       40   -0.028196    0.028196  -2+2+00
      460   -0.028164   -0.028164  -++2+-0
       75    0.027956    0.027956  -+22+00
      810    0.027796    0.027796  -++2+0-
      808   -0.027429    0.027429  2+02+0-
      459   -0.027428    0.027428  20+2+-0
       87   -0.025992    0.025992  2+-200+
       43    0.025584    0.025584  2-+20+0
      253    0.024433    0.024433  20+2-+0
      262    0.024433    0.024433  2+02-0+
      298    0.022919    0.022919  +-+2-0+
      322   -0.022729    0.022729  ++-2-+0
       89    0.021707    0.021707  -+2200+
       44    0.021706   -0.021706  -2+20+0
      844   -0.020543    0.020543  +-+2+0-
      528    0.020424    0.020424  ++-2+-0

 State #    4  Energy =   -2235.692927803

      Det      Coef        Coefp    Occupancy (Ignoring core)
      ---      ----        ----    --------- --------- -----
       71    0.674988   -0.674988  2+22000
       36    0.669231    0.669231  22+2000
       39   -0.101924   -0.101924  2-+2+00
       73    0.101924   -0.101924  2+-2+00
      177   -0.085353    0.085353  2+20200
      142   -0.084625   -0.084625  22+0200
        6    0.083805   -0.083805  22200+0
       16   -0.082710    0.082710  222000+
       42   -0.065395    0.065395  22020+0
       88    0.065284   -0.065284  202200+
      113    0.050919   -0.050919  +-220+0
      122   -0.050919   -0.050919  +2-200+
      248   -0.049239    0.049239  2+02200
      249   -0.048819    0.048819  20+2200
      109    0.039794   -0.039794  +-22+00
      108    0.039455    0.039455  +2-2+00
      823   -0.037469    0.037469  20+2002
      462   -0.037322    0.037322  2+02020
       78   -0.031491    0.031491  20220+0
       52    0.030337   -0.030337  220200+
      841    0.029213   -0.029213  +2+200-
      526   -0.029213   -0.029213  ++220-0
       75   -0.028196   -0.028196  -+22+00
      810    0.028164    0.028164  -++2+0-
       40   -0.027956    0.027956  -2+2+00
      460    0.027796    0.027796  -++2+-0
      458    0.027428   -0.027428  2+02+-0
      809   -0.027428    0.027428  20+2+0-
       43   -0.025994   -0.025994  2-+20+0
       87   -0.025586    0.025586  2+-200+
      263    0.024433    0.024433  20+2-0+
      252   -0.024433   -0.024433  2+02-+0
      322    0.022919   -0.022919  ++-2-+0
      298    0.022728    0.022728  +-+2-0+
       79   -0.021707   -0.021707  -+220+0
       54    0.021706   -0.021706  -2+200+
      528   -0.020543   -0.020543  ++-2+-0
      844   -0.020424    0.020424  +-+2+0-

 ---------------------------------------
    -DIABATIC STATES IN PROTOTYPES-     
 ---------------------------------------

     STATE:    1
 Group Ref#    Coefficients
     1    1    0.999078
     2    2    0.000009
     3    3   -0.000000
     4    4    0.000000

WEIGHT OF LISTED PROTOTYPES:   99.82%

     STATE:    2
 Group Ref#    Coefficients
     1    1    0.000009
     2    2    0.997602
     3    3   -0.000006
     4    4   -0.000104

WEIGHT OF LISTED PROTOTYPES:   99.52%

     STATE:    3
 Group Ref#    Coefficients
     1    1   -0.000000
     2    2   -0.000006
     3    3    0.997705
     4    4    0.000000

WEIGHT OF LISTED PROTOTYPES:   99.54%

     STATE:    4
 Group Ref#    Coefficients
     1    1    0.000000
     2    2   -0.000104
     3    3    0.000000
     4    4    0.997705

WEIGHT OF LISTED PROTOTYPES:   99.54%

     DIRECT MAX. DIABATIZATION FINISHED    
 CPU     0: STEP CPU TIME=     0.59 TOTAL CPU TIME=        277.6 (      4.6 MIN)
 TOTAL WALL CLOCK TIME=        287.7 SECONDS, CPU UTILIZATION IS    96.48%

DIABATS FOR SPIN-ORBIT CALCULATION ARE READY

TRANSITION DIPOLES BETWEEN ADIABATS (in A.U.):

STATE PAIR      X         Y         Z
    1    1 -0.000000 -0.000000 -0.022928
    2    1  0.000000 -0.000000 -0.466886
    2    2 -0.000000  0.000000 -0.034807
    3    1  0.000914  0.001401 -0.000000
    3    2  0.090892  0.139355  0.000000
    3    3  0.168534  0.382619 -0.011403
    4    1 -0.001401  0.000914  0.000000
    4    2 -0.139355  0.090892  0.000000
    4    3  0.382619 -0.168534  0.000000
    4    4 -0.168534 -0.382619 -0.011403


TRANSITION DIPOLES BETWEEN DIABATS (in A.U.):

STATE PAIR      X         Y         Z
    1    1 -0.000000 -0.000000 -0.028510
    2    1 -0.000001 -0.000000  0.466923
    2    2  0.000057  0.000004 -0.029226
    3    1  0.000044 -0.002668 -0.000005
    3    2 -0.002726  0.166414  0.000000
    3    3  0.417867 -0.013733 -0.011403
    4    1 -0.002666 -0.000044 -0.000081
    4    2  0.166269  0.002738  0.000004
    4    3  0.013729  0.417838 -0.000000
    4    4 -0.417924  0.013729 -0.011403

TRANSITION DIPOLES BETWEEN DIRECT MAX. DIABATS (in A.U.):

STATE PAIR      X         Y         Z
    1    1 -0.000000 -0.000000 -0.028510
    2    1 -0.000001 -0.000000  0.466923
    2    2  0.000057  0.000004 -0.029226
    3    1  0.000044 -0.002668 -0.000005
    3    2 -0.002726  0.166413  0.000000
    3    3  0.417867 -0.013733 -0.011403
    4    1 -0.002666 -0.000044 -0.000081
    4    2  0.166269  0.002738  0.000004
    4    3  0.013729  0.417838 -0.000000
    4    4 -0.417924  0.013729 -0.011403
 No $TRANST Group Found.
 Quit without doing spin-orbit coupling
 ..... DONE WITH MP2 ENERGY .....
 CPU     0: STEP CPU TIME=     0.00 TOTAL CPU TIME=        277.6 (      4.6 MIN)
 TOTAL WALL CLOCK TIME=        287.7 SECONDS, CPU UTILIZATION IS    96.48%
            250000000  WORDS OF DYNAMIC MEMORY USED
 EXECUTION OF GAMESS TERMINATED NORMALLY Mon Dec  4 10:33:32 2023
 DDI: 14063448 bytes (13.4 MB / 1 MWords) used by master data server.

 ----------------------------------------
 CPU timing information for all processes
 ========================================
 0: 277.17 + 0.593 = 277.611
 1: 272.232 + 0.388 = 272.620
 ----------------------------------------
Note: The following floating-point exceptions are signalling: IEEE_DENORMAL
Note: The following floating-point exceptions are signalling: IEEE_DENORMAL
 ddikick.x: exited gracefully.
unset echo
----- accounting info -----
Files used on the master node io001 were:
-rw-r--r-- 1 bjb2chen nooijen   144594 Dec  4 10:28 /home/bjb2chen/gmsscr//AsH3cat_cct_gmcpt_C1_3st_diab_mode1_-0.05.F05
-rw-r--r-- 1 bjb2chen nooijen  4166296 Dec  4 10:32 /home/bjb2chen/gmsscr//AsH3cat_cct_gmcpt_C1_3st_diab_mode1_-0.05.F09
-rw-r--r-- 1 bjb2chen nooijen  6120544 Dec  4 10:32 /home/bjb2chen/gmsscr//AsH3cat_cct_gmcpt_C1_3st_diab_mode1_-0.05.F09.001
-rw-r--r-- 1 bjb2chen nooijen  3010240 Dec  4 10:33 /home/bjb2chen/gmsscr//AsH3cat_cct_gmcpt_C1_3st_diab_mode1_-0.05.F10
-rw-r--r-- 1 bjb2chen nooijen  1148256 Dec  4 10:31 /home/bjb2chen/gmsscr//AsH3cat_cct_gmcpt_C1_3st_diab_mode1_-0.05.F13
-rw-r--r-- 1 bjb2chen nooijen  1148256 Dec  4 10:31 /home/bjb2chen/gmsscr//AsH3cat_cct_gmcpt_C1_3st_diab_mode1_-0.05.F13.001
-rw-r--r-- 1 bjb2chen nooijen   181872 Dec  4 10:33 /home/bjb2chen/gmsscr//AsH3cat_cct_gmcpt_C1_3st_diab_mode1_-0.05.F15
-rw-r--r-- 1 bjb2chen nooijen        0 Dec  4 10:28 /home/bjb2chen/gmsscr//AsH3cat_cct_gmcpt_C1_3st_diab_mode1_-0.05.F16
-rw-r--r-- 1 bjb2chen nooijen     9808 Dec  4 10:32 /home/bjb2chen/gmsscr//AsH3cat_cct_gmcpt_C1_3st_diab_mode1_-0.05.F70
-rw-r--r-- 1 bjb2chen nooijen     9808 Dec  4 10:32 /home/bjb2chen/gmsscr//AsH3cat_cct_gmcpt_C1_3st_diab_mode1_-0.05.F70.001
-rw-r--r-- 1 bjb2chen nooijen     9808 Dec  4 10:32 /home/bjb2chen/gmsscr//AsH3cat_cct_gmcpt_C1_3st_diab_mode1_-0.05.F71
-rw-r--r-- 1 bjb2chen nooijen     9808 Dec  4 10:32 /home/bjb2chen/gmsscr//AsH3cat_cct_gmcpt_C1_3st_diab_mode1_-0.05.F71.001
-rw-r--r-- 1 bjb2chen nooijen    19608 Dec  4 10:32 /home/bjb2chen/gmsscr//AsH3cat_cct_gmcpt_C1_3st_diab_mode1_-0.05.F72
-rw-r--r-- 1 bjb2chen nooijen    19608 Dec  4 10:32 /home/bjb2chen/gmsscr//AsH3cat_cct_gmcpt_C1_3st_diab_mode1_-0.05.F72.001
-rw-r--r-- 1 bjb2chen nooijen    19608 Dec  4 10:32 /home/bjb2chen/gmsscr//AsH3cat_cct_gmcpt_C1_3st_diab_mode1_-0.05.F73
-rw-r--r-- 1 bjb2chen nooijen    19608 Dec  4 10:32 /home/bjb2chen/gmsscr//AsH3cat_cct_gmcpt_C1_3st_diab_mode1_-0.05.F73.001
-rw-r--r-- 1 bjb2chen nooijen   961208 Dec  4 10:32 /home/bjb2chen/gmsscr//AsH3cat_cct_gmcpt_C1_3st_diab_mode1_-0.05.F74
-rw-r--r-- 1 bjb2chen nooijen   959640 Dec  4 10:32 /home/bjb2chen/gmsscr//AsH3cat_cct_gmcpt_C1_3st_diab_mode1_-0.05.F74.001
-rw-r--r-- 1 bjb2chen nooijen        0 Dec  4 10:28 /home/bjb2chen/gmsscr//AsH3cat_cct_gmcpt_C1_3st_diab_mode1_-0.05.F75
-rw-r--r-- 1 bjb2chen nooijen        0 Dec  4 10:28 /home/bjb2chen/gmsscr//AsH3cat_cct_gmcpt_C1_3st_diab_mode1_-0.05.F75.001
-rw-r--r-- 1 bjb2chen nooijen    78456 Dec  4 10:32 /home/bjb2chen/gmsscr//AsH3cat_cct_gmcpt_C1_3st_diab_mode1_-0.05.F76
-rw-r--r-- 1 bjb2chen nooijen    78456 Dec  4 10:32 /home/bjb2chen/gmsscr//AsH3cat_cct_gmcpt_C1_3st_diab_mode1_-0.05.F76.001
-rw-r--r-- 1 bjb2chen nooijen        0 Dec  4 10:28 /home/bjb2chen/gmsscr//AsH3cat_cct_gmcpt_C1_3st_diab_mode1_-0.05.F77
-rw-r--r-- 1 bjb2chen nooijen        0 Dec  4 10:28 /home/bjb2chen/gmsscr//AsH3cat_cct_gmcpt_C1_3st_diab_mode1_-0.05.F77.001
-rw-r--r-- 1 bjb2chen nooijen     6408 Dec  4 10:32 /home/bjb2chen/gmsscr//AsH3cat_cct_gmcpt_C1_3st_diab_mode1_-0.05.F78
-rw-r--r-- 1 bjb2chen nooijen     6408 Dec  4 10:32 /home/bjb2chen/gmsscr//AsH3cat_cct_gmcpt_C1_3st_diab_mode1_-0.05.F78.001
-rw-r--r-- 1 bjb2chen nooijen    49008 Dec  4 10:32 /home/bjb2chen/gmsscr//AsH3cat_cct_gmcpt_C1_3st_diab_mode1_-0.05.F79
-rw-r--r-- 1 bjb2chen nooijen    49008 Dec  4 10:32 /home/bjb2chen/gmsscr//AsH3cat_cct_gmcpt_C1_3st_diab_mode1_-0.05.F79.001
-rw-r--r-- 1 bjb2chen nooijen      168 Dec  4 10:32 /home/bjb2chen/gmsscr//AsH3cat_cct_gmcpt_C1_3st_diab_mode1_-0.05.F80
-rw-r--r-- 1 bjb2chen nooijen      168 Dec  4 10:32 /home/bjb2chen/gmsscr//AsH3cat_cct_gmcpt_C1_3st_diab_mode1_-0.05.F80.001
-rw-r--r-- 1 bjb2chen nooijen   102416 Dec  4 10:32 /home/bjb2chen/gmsscr//AsH3cat_cct_gmcpt_C1_3st_diab_mode1_-0.05.F81
-rw-r--r-- 1 bjb2chen nooijen   102416 Dec  4 10:32 /home/bjb2chen/gmsscr//AsH3cat_cct_gmcpt_C1_3st_diab_mode1_-0.05.F81.001
-rw-r--r-- 1 bjb2chen nooijen      656 Dec  4 10:32 /home/bjb2chen/gmsscr//AsH3cat_cct_gmcpt_C1_3st_diab_mode1_-0.05.F82
-rw-r--r-- 1 bjb2chen nooijen      656 Dec  4 10:32 /home/bjb2chen/gmsscr//AsH3cat_cct_gmcpt_C1_3st_diab_mode1_-0.05.F82.001
-rw-r--r-- 1 bjb2chen nooijen    19216 Dec  4 10:32 /home/bjb2chen/gmsscr//AsH3cat_cct_gmcpt_C1_3st_diab_mode1_-0.05.F83
-rw-r--r-- 1 bjb2chen nooijen    19216 Dec  4 10:32 /home/bjb2chen/gmsscr//AsH3cat_cct_gmcpt_C1_3st_diab_mode1_-0.05.F83.001
-rw-r--r-- 1 bjb2chen nooijen   327696 Dec  4 10:32 /home/bjb2chen/gmsscr//AsH3cat_cct_gmcpt_C1_3st_diab_mode1_-0.05.F84
-rw-r--r-- 1 bjb2chen nooijen   327696 Dec  4 10:32 /home/bjb2chen/gmsscr//AsH3cat_cct_gmcpt_C1_3st_diab_mode1_-0.05.F84.001
-rw-r--r-- 1 bjb2chen nooijen  3440424 Dec  4 10:32 /home/bjb2chen/gmsscr//AsH3cat_cct_gmcpt_C1_3st_diab_mode1_-0.05.F85
-rw-r--r-- 1 bjb2chen nooijen  3440424 Dec  4 10:32 /home/bjb2chen/gmsscr//AsH3cat_cct_gmcpt_C1_3st_diab_mode1_-0.05.F85.001
-rw-r--r-- 1 bjb2chen nooijen 14799904 Dec  4 10:32 /home/bjb2chen/gmsscr//AsH3cat_cct_gmcpt_C1_3st_diab_mode1_-0.05.F86
-rw-r--r-- 1 bjb2chen nooijen 14477216 Dec  4 10:32 /home/bjb2chen/gmsscr//AsH3cat_cct_gmcpt_C1_3st_diab_mode1_-0.05.F86.001
-rw-r--r-- 1 bjb2chen nooijen     1160 Dec  4 10:33 /home/bjb2chen/gmsscr//AsH3cat_cct_gmcpt_C1_3st_diab_mode1_-0.05.F87
-rw-r--r-- 1 bjb2chen nooijen     1160 Dec  4 10:33 /home/bjb2chen/gmsscr//AsH3cat_cct_gmcpt_C1_3st_diab_mode1_-0.05.F87.001
-rw-r--r-- 1 bjb2chen nooijen    30720 Dec  4 10:33 /home/bjb2chen/gmsscr//AsH3cat_cct_gmcpt_C1_3st_diab_mode1_-0.05.F88
-rw-r--r-- 1 bjb2chen nooijen    30720 Dec  4 10:33 /home/bjb2chen/gmsscr//AsH3cat_cct_gmcpt_C1_3st_diab_mode1_-0.05.F88.001
-rw-r--r-- 1 bjb2chen nooijen      648 Dec  4 10:32 /home/bjb2chen/gmsscr//AsH3cat_cct_gmcpt_C1_3st_diab_mode1_-0.05.F89
-rw-r--r-- 1 bjb2chen nooijen      648 Dec  4 10:32 /home/bjb2chen/gmsscr//AsH3cat_cct_gmcpt_C1_3st_diab_mode1_-0.05.F89.001
-rw-r--r-- 1 bjb2chen nooijen        0 Dec  4 10:28 /home/bjb2chen/gmsscr//AsH3cat_cct_gmcpt_C1_3st_diab_mode1_-0.05.F90
-rw-r--r-- 1 bjb2chen nooijen        0 Dec  4 10:28 /home/bjb2chen/gmsscr//AsH3cat_cct_gmcpt_C1_3st_diab_mode1_-0.05.F90.001
-rw-r--r-- 1 bjb2chen nooijen    13760 Dec  4 10:33 /home/bjb2chen/gmsscr//AsH3cat_cct_gmcpt_C1_3st_diab_mode1_-0.05.F91
-rw-r--r-- 1 bjb2chen nooijen    13760 Dec  4 10:33 /home/bjb2chen/gmsscr//AsH3cat_cct_gmcpt_C1_3st_diab_mode1_-0.05.F91.001
-rw-r--r-- 1 bjb2chen nooijen    22776 Dec  4 10:32 /home/bjb2chen/gmsscr//AsH3cat_cct_gmcpt_C1_3st_diab_mode1_-0.05.F92
-rw-r--r-- 1 bjb2chen nooijen    22776 Dec  4 10:32 /home/bjb2chen/gmsscr//AsH3cat_cct_gmcpt_C1_3st_diab_mode1_-0.05.F92.001
-rw-r--r-- 1 bjb2chen nooijen    23168 Dec  4 10:32 /home/bjb2chen/gmsscr//AsH3cat_cct_gmcpt_C1_3st_diab_mode1_-0.05.F93
-rw-r--r-- 1 bjb2chen nooijen    23168 Dec  4 10:32 /home/bjb2chen/gmsscr//AsH3cat_cct_gmcpt_C1_3st_diab_mode1_-0.05.F93.001
-rw-r--r-- 1 bjb2chen nooijen    22776 Dec  4 10:32 /home/bjb2chen/gmsscr//AsH3cat_cct_gmcpt_C1_3st_diab_mode1_-0.05.F94
-rw-r--r-- 1 bjb2chen nooijen    22776 Dec  4 10:32 /home/bjb2chen/gmsscr//AsH3cat_cct_gmcpt_C1_3st_diab_mode1_-0.05.F94.001
-rw-r--r-- 1 bjb2chen nooijen    13760 Dec  4 10:32 /home/bjb2chen/gmsscr//AsH3cat_cct_gmcpt_C1_3st_diab_mode1_-0.05.F95
-rw-r--r-- 1 bjb2chen nooijen    13760 Dec  4 10:32 /home/bjb2chen/gmsscr//AsH3cat_cct_gmcpt_C1_3st_diab_mode1_-0.05.F95.001
-rw-r--r-- 1 bjb2chen nooijen    39248 Dec  4 10:33 /home/bjb2chen/gmsscr//AsH3cat_cct_gmcpt_C1_3st_diab_mode1_-0.05.F96
-rw-r--r-- 1 bjb2chen nooijen    39248 Dec  4 10:33 /home/bjb2chen/gmsscr//AsH3cat_cct_gmcpt_C1_3st_diab_mode1_-0.05.F96.001
-rw-r--r-- 1 bjb2chen nooijen     1184 Dec  4 10:32 /home/bjb2chen/gmsscr//AsH3cat_cct_gmcpt_C1_3st_diab_mode1_-0.05.F97
-rw-r--r-- 1 bjb2chen nooijen     1184 Dec  4 10:32 /home/bjb2chen/gmsscr//AsH3cat_cct_gmcpt_C1_3st_diab_mode1_-0.05.F97.001
-rw-r--r-- 1 bjb2chen nooijen     9808 Dec  4 10:32 /home/bjb2chen/gmsscr//AsH3cat_cct_gmcpt_C1_3st_diab_mode1_-0.05.F98
-rw-r--r-- 1 bjb2chen nooijen     9808 Dec  4 10:32 /home/bjb2chen/gmsscr//AsH3cat_cct_gmcpt_C1_3st_diab_mode1_-0.05.F98.001
-rw-r--r-- 1 bjb2chen nooijen    30264 Dec  4 10:32 /home/bjb2chen/gmsscr//AsH3cat_cct_gmcpt_C1_3st_diab_mode1_-0.05.F99
-rw-r--r-- 1 bjb2chen nooijen    30264 Dec  4 10:32 /home/bjb2chen/gmsscr//AsH3cat_cct_gmcpt_C1_3st_diab_mode1_-0.05.F99.001
ls: No match.
ls: No match.
ls: No match.
Mon 04 Dec 2023 10:33:35 AM EST
0.290u 0.067s 4:51.26 0.1%	0+0k 288+496io 0pf+0w
