----- GAMESS execution script 'rungms' -----
This job is running on host io001
under operating system Linux at Mon 04 Dec 2023 10:26:54 AM EST
Available scratch disk space (Kbyte units) at beginning of the job is
Filesystem             1K-blocks       Used Available Use% Mounted on
helmholtz.nlogn:/home 6391504896 5230530560 838835200  87% /home
GAMESS temporary binary files will be written to /home/bjb2chen/gmsscr/
GAMESS supplementary output files will be written to /home/bjb2chen/gamess/vibronics/ash3/4state
Copying input file AsH3cat_cct_gmcpt_C1_3st_diab_refG.inp to your run's scratch directory...
cp AsH3cat_cct_gmcpt_C1_3st_diab_refG.inp /home/bjb2chen/gmsscr//AsH3cat_cct_gmcpt_C1_3st_diab_refG.F05
unset echo
 
Assuming a single but multicore node.
 
/home/bjb2chen/gamess/ddikick.x /home/bjb2chen/gamess/gamess.00.x AsH3cat_cct_gmcpt_C1_3st_diab_refG -ddi 1 2 io001:cpus=2 -scr /home/bjb2chen/gmsscr/

 Distributed Data Interface kickoff program.
 Initiating 2 compute processes on 1 nodes to run the following command:
 /home/bjb2chen/gamess/gamess.00.x AsH3cat_cct_gmcpt_C1_3st_diab_refG 

          ******************************************************
          *         GAMESS VERSION = 02 AUG 2018 (R2)         *
          *             FROM IOWA STATE UNIVERSITY             *
          * M.W.SCHMIDT, K.K.BALDRIDGE, J.A.BOATZ, S.T.ELBERT, *
          *   M.S.GORDON, J.H.JENSEN, S.KOSEKI, N.MATSUNAGA,   *
          *          K.A.NGUYEN, S.J.SU, T.L.WINDUS,           *
          *       TOGETHER WITH M.DUPUIS, J.A.MONTGOMERY       *
          *         J.COMPUT.CHEM.  14, 1347-1363(1993)        *
          **************** 64 BIT LINUX VERSION ****************

  SINCE 1993, STUDENTS AND POSTDOCS WORKING AT IOWA STATE UNIVERSITY
  AND ALSO IN THEIR VARIOUS JOBS AFTER LEAVING ISU HAVE MADE IMPORTANT
  CONTRIBUTIONS TO THE CODE:
     IVANA ADAMOVIC, CHRISTINE AIKENS, YURI ALEXEEV, POOJA ARORA,
     ANDREY ASADCHEV, ROB BELL, PRADIPTA BANDYOPADHYAY, JONATHAN BENTZ,
     BRETT BODE, KURT BRORSEN, CALEB CARLIN, GALINA CHABAN, WEI CHEN,
     CHEOL HO CHOI, PAUL DAY, ALBERT DEFUSCO, NUWAN DESILVA, TIM DUDLEY,
     DMITRI FEDOROV, ALEX FINDLATER, GRAHAM FLETCHER, MARK FREITAG,
     KURT GLAESEMANN, ANASTASIA GUININA,
     DAN KEMP, GRANT MERRILL, NORIYUKI MINEZAWA, JONATHAN MULLIN,
     TAKESHI NAGATA, SEAN NEDD, HEATHER NETZLOFF, BOSILJKA NJEGIC, RYAN OLSON,
     MIKE PAK, BUU PHAM,
     SPENCER PRUITT, LUKE ROSKOP, JIM SHOEMAKER, LYUDMILA SLIPCHENKO,
     TONY SMITH, SAROM SOK LEANG, JIE SONG, TETSUYA TAKETSUGU, SIMON WEBB,
     PENG XU, SOOHAENG YOO, FEDERICO ZAHARIEV

  ADDITIONAL CODE HAS BEEN PROVIDED BY COLLABORATORS IN OTHER GROUPS:
     IOWA STATE UNIVERSITY:
          JOE IVANIC, AARON WEST, LAIMUTIS BYTAUTAS, KLAUS RUEDENBERG
     UNIVERSITY OF TOKYO: KIMIHIKO HIRAO, TAKAHITO NAKAJIMA,
          TAKAO TSUNEDA, MUNEAKI KAMIYA, SUSUMU YANAGISAWA,
          KIYOSHI YAGI, MAHITO CHIBA, SEIKEN TOKURA, NAOAKI KAWAKAMI
     UNIVERSITY OF AARHUS: FRANK JENSEN
     UNIVERSITY OF IOWA: VISVALDAS KAIRYS, HUI LI
     NATIONAL INST. OF STANDARDS AND TECHNOLOGY: WALT STEVENS, DAVID GARMER
     UNIVERSITY OF PISA: BENEDETTA MENNUCCI, JACOPO TOMASI
     UNIVERSITY OF MEMPHIS: HENRY KURTZ, PRAKASHAN KORAMBATH
     UNIVERSITY OF ALBERTA: TOBY ZENG, MARIUSZ KLOBUKOWSKI
     UNIVERSITY OF NEW ENGLAND: MARK SPACKMAN
     MIE UNIVERSITY: HIROAKI UMEDA
     NAT. INST. OF ADVANCED INDUSTRIAL SCIENCE AND TECHNOLOGY: KAZUO KITAURA
     MICHIGAN STATE UNIVERSITY:
          KAROL KOWALSKI, MARTA WLOCH, JEFFREY GOUR, JESSE LUTZ,
          WEI LI, JUN SHEN, J. EMILIANO DEUSTUA, PIOTR PIECUCH
     UNIVERSITY OF MINNESOTA:
          YINAN SHU
     UNIVERSITY OF SILESIA: MONIKA MUSIAL, STANISLAW KUCHARSKI
     FACULTES UNIVERSITAIRES NOTRE-DAME DE LA PAIX:
          OLIVIER QUINET, BENOIT CHAMPAGNE
     UNIVERSITY OF CALIFORNIA - SANTA BARBARA: BERNARD KIRTMAN
     INSTITUTE FOR MOLECULAR SCIENCE:
          KAZUYA ISHIMURA, MICHIO KATOUDA, AND SHIGERU NAGASE
     UNIVERSITY OF NOTRE DAME: ANNA POMOGAEVA, DAN CHIPMAN
     KYUSHU UNIVERSITY:
          HARUYUKI NAKANO,
          FENG LONG GU, JACEK KORCHOWIEC, MARCIN MAKOWSKI, AND YURIKO AOKI,
          HIROTOSHI MORI AND EISAKU MIYOSHI
     PENNSYLVANIA STATE UNIVERSITY:
          TZVETELIN IORDANOV, CHET SWALINA, JONATHAN SKONE,
          SHARON HAMMES-SCHIFFER
     WASEDA UNIVERSITY:
          MASATO KOBAYASHI, TOMOKO AKAMA, TSUGUKI TOUMA,
          TAKESHI YOSHIKAWA, YASUHIRO IKABATA, JUNJI SEINO,
          YUYA NAKAJIMA, HIROMI NAKAI
     NANJING UNIVERSITY: SHUHUA LI
     UNIVERSITY OF NEBRASKA:
          PEIFENG SU, DEJUN SI, NANDUN THELLAMUREGE, YALI WANG, HUI LI
     UNIVERSITY OF ZURICH: ROBERTO PEVERATI, KIM BALDRIDGE
     N. COPERNICUS UNIVERSITY AND JACKSON STATE UNIVERSITY:
          MARIA BARYSZ
     UNIVERSITY OF COPENHAGEN: Jimmy Kromann, CASPER STEINMANN
     TOKYO INSTITUTE OF TECHNOLOGY: HIROYA NAKATA
     NAGOYA UNIVERSITY: YOSHIO NISHIMOTO, STEPHAN IRLE
     MOSCOW STATE UNIVERSITY: VLADIMIR MIRONOV


 PARALLEL VERSION RUNNING ON        2 PROCESSORS IN        1 NODES.

 EXECUTION OF GAMESS BEGUN Mon Dec  4 10:26:54 2023

            ECHO OF THE FIRST FEW INPUT CARDS -
 INPUT CARD> !Step 4: Calculation using REFDET                                              
 INPUT CARD> $system kdiag=3 mwords=250 memddi=8000 parall=.t. $end                         
 INPUT CARD> $contrl runtyp=energy ispher=1 $end                                            
 INPUT CARD> $contrl icut=9 itol=20 inttyp=rysquad qmttol=1.0d-05 nosym=1 $end              
 INPUT CARD> $scf    npunch=2 conv=1.0d-06 dirscf=.t. diis=.t. soscf=.f. ethrsh=10.0 $end   
 INPUT CARD> $contrl scftyp=mcscf  mult=2 maxit=200 icharg=1 mplevl=2 $end                  
 INPUT CARD> $guess  guess=moread norb=85 purify=.t. $end                                   
 INPUT CARD> $basis  gbasis=cct $end                                                        
 INPUT CARD> $mcscf  cistep=gmcci fullnr=.t. finci=mos                                      
 INPUT CARD>         acurcy=1.d-6 maxit=200 $end                                            
 INPUT CARD> $trans  dirtrf=.t. $end                                                        
 INPUT CARD> $mrmp   mrpt=gmcpt rdvecs=.f. $end                                             
 INPUT CARD> $gmcpt  nmofzc=5 nmodoc=9 nmoact=7 nelact=7 stsym(1)=A                         
 INPUT CARD>         reftyp=ormas nspace=1 mstart(1)=15 mine(1)=7 maxe(1)=7                 
 INPUT CARD>         kstate(1)=1,1,1,1                                                      
 INPUT CARD>         wstate(1)=1,1,1,1                                                      
 INPUT CARD>         iwgt=0 thrwgt=-1.0 krot=.f. kszdoe=.f. knospn=.f.                      
 INPUT CARD>         thrde=-1.0 edshft=0.02 $end                                            
 INPUT CARD> $statpt hssend=.t. $end                                                        
 INPUT CARD> $end                                                                           
 INPUT CARD>--- Semi-canonical MOs --- generated at Mon Dec  4 10:21:58 2023                
 INPUT CARD> $VEC                                                                           
 INPUT CARD> 1  1 9.99999416E-01 7.29973887E-07-3.99440478E-06-4.81875831E-06 1.63484706E-05
 INPUT CARD> 1  2 5.36732169E-06-0.00000000E+00-0.00000000E+00-0.00000000E+00 4.03838885E-11
 INPUT CARD> 1  3-0.00000000E+00-0.00000000E+00 7.96211074E-11 1.14517212E-11-0.00000000E+00
 INPUT CARD> 1  4-1.40849369E-11-0.00000000E+00-0.00000000E+00-2.21867430E-11-0.00000000E+00
 INPUT CARD> 1  5-0.00000000E+00 1.08959399E-07 1.08961145E-07-2.17920544E-07-0.00000000E+00
 INPUT CARD> 1  6-0.00000000E+00-0.00000000E+00 7.02728157E-08 7.02573272E-08-1.40530143E-07
 INPUT CARD> 1  7-0.00000000E+00-0.00000000E+00-0.00000000E+00 8.61676265E-08 8.61266319E-08
 INPUT CARD> 1  8-1.72294258E-07-0.00000000E+00-0.00000000E+00-0.00000000E+00 1.61185015E-07
 INPUT CARD> 1  9-0.00000000E+00-0.00000000E+00-0.00000000E+00-0.00000000E+00-2.16246982E-07
 INPUT CARD> 1 10-0.00000000E+00-0.00000000E+00-0.00000000E+00-0.00000000E+00-2.29650252E-07
 INPUT CARD> 1 11-4.66898658E-07-1.12343498E-06-6.64097518E-08 1.15015824E-07-0.00000000E+00
 INPUT CARD> 1 12-1.90369794E-07 3.29734733E-07-0.00000000E+00 4.67684240E-08-2.10541491E-07
 INPUT CARD> 1 13 1.63773067E-07 2.57316182E-07-0.00000000E+00-0.00000000E+00-2.29652599E-07
 INPUT CARD> 1 14-4.66879487E-07-1.12342770E-06-6.64102175E-08-1.15016523E-07-0.00000000E+00
 INPUT CARD> 1 15-1.90364897E-07-3.29724918E-07-0.00000000E+00 4.67679470E-08-2.10540564E-07
 INPUT CARD> 1 16 1.63772617E-07-2.57315196E-07-0.00000000E+00-0.00000000E+00-2.29639944E-07
 INPUT CARD> 1 17-4.66987046E-07-1.12340031E-06 1.32807841E-07-0.00000000E+00-0.00000000E+00
 INPUT CARD> 1 18 3.80780830E-07-0.00000000E+00-0.00000000E+00-3.39206184E-07 1.75440103E-07
 INPUT CARD> 1 19 1.63766080E-07-0.00000000E+00-0.00000000E+00-0.00000000E+00               
 INPUT CARD> 2  1 2.72313662E-06 1.00010341E+00 1.34746909E-04 1.43214017E-04-4.26044547E-04
 INPUT CARD> 2  2-1.40486446E-04 7.10299112E-11-7.88863849E-11-0.00000000E+00-5.42197215E-11
 INPUT CARD> 2  3-1.27361486E-11-0.00000000E+00-1.68049866E-10-3.19745914E-11-0.00000000E+00
 INPUT CARD> 2  4 2.95588732E-11-0.00000000E+00-0.00000000E+00-0.00000000E+00-0.00000000E+00
 INPUT CARD> 2  5-0.00000000E+00-6.69941071E-07-6.69957164E-07 1.33989824E-06-0.00000000E+00
 INPUT CARD> 2  6-0.00000000E+00-0.00000000E+00-2.23303604E-06-2.23305293E-06 4.46608898E-06
 INPUT CARD> 2  7-0.00000000E+00-0.00000000E+00-0.00000000E+00-1.84537905E-06-1.84515653E-06
 INPUT CARD> 2  8 3.69053558E-06 1.25718203E-11-0.00000000E+00-0.00000000E+00-6.15992627E-06
 INPUT CARD> 2  9-0.00000000E+00-0.00000000E+00-0.00000000E+00-0.00000000E+00 8.26439636E-06
  250000000 WORDS OF MEMORY AVAILABLE

     BASIS OPTIONS
     -------------
     GBASIS=CCT          IGAUSS=       0      POLAR=NONE    
     NDFUNC=       0     NFFUNC=       0     DIFFSP=       F
     NPFUNC=       0      DIFFS=       F     BASNAM=        


     RUN TITLE
     ---------
 AsH3+ calculation at 4 states                                                   

 THE POINT GROUP OF THE MOLECULE IS C1      
 THE ORDER OF THE PRINCIPAL AXIS IS     0

 ATOM      ATOMIC                      COORDINATES (BOHR)
           CHARGE         X                   Y                   Z
 AS         33.0     0.0000000000       -0.0000000000        0.0000000000
 H           1.0    -1.3842523991        2.3975954855        0.0000000000
 H           1.0    -1.3842523991       -2.3975954855        0.0000000000
 H           1.0     2.7685047980        0.0000000000        0.0000000000

          INTERNUCLEAR DISTANCES (ANGS.)
          ------------------------------

                1 AS         2 H          3 H          4 H     

   1 AS      0.0000000    1.4650298 *  1.4650298 *  1.4650298 *
   2 H       1.4650298 *  0.0000000    2.5375060 *  2.5375060 *
   3 H       1.4650298 *  2.5375060 *  0.0000000    2.5375060 *
   4 H       1.4650298 *  2.5375060 *  2.5375060 *  0.0000000  

  * ... LESS THAN  3.000


     ATOMIC BASIS SET
     ----------------
 THE CONTRACTED PRIMITIVE FUNCTIONS HAVE BEEN UNNORMALIZED
 THE CONTRACTED BASIS FUNCTIONS ARE NOW NORMALIZED TO UNITY

  SHELL TYPE  PRIMITIVE        EXPONENT          CONTRACTION COEFFICIENT(S)

 AS        

      1   S       1       8482340.0000000    0.000006800003
      1   S       2       1270151.0000000    0.000052800023
      1   S       3        289057.0000000    0.000277400122
      1   S       4         81879.8500000    0.001170200514
      1   S       5         26716.5600000    0.004242101862
      1   S       6          9647.5840000    0.013655705995
      1   S       7          3764.1190000    0.039339917271
      1   S       8          1561.5660000    0.099929243872
      1   S       9           680.8147000    0.212155593142
      1   S      10           309.2412000    0.336386747683
      1   S      11           145.2574000    0.315512638518
      1   S      12            69.7390500    0.118131251863
      1   S      13            31.7703200    0.008007603516
      1   S      14            15.3917600    0.000329300145
      1   S      15             7.3415260   -0.000152300067
      1   S      16             3.3237160    0.000024700011
      1   S      17             1.4858670   -0.000036600016
      1   S      18             0.2115000   -0.000009400004

      2   S      19       8482340.0000000   -0.000002099844
      2   S      20       1270151.0000000   -0.000016498771
      2   S      21        289057.0000000   -0.000086593551
      2   S      22         81879.8500000   -0.000365272798
      2   S      23         26716.5600000   -0.001330800894
      2   S      24          9647.5840000   -0.004308979105
      2   S      25          3764.1190000   -0.012696354487
      2   S      26          1561.5660000   -0.033613496762
      2   S      27           680.8147000   -0.078941121158
      2   S      28           309.2412000   -0.151434522485
      2   S      29           145.2574000   -0.204186194004
      2   S      30            69.7390500   -0.055732549529
      2   S      31            31.7703200    0.418729516699
      2   S      32            15.3917600    0.575833316987
      2   S      33             7.3415260    0.169671564351
      2   S      34             3.3237160    0.006065748276
      2   S      35             1.4858670    0.001760368903
      2   S      36             0.2115000    0.000231582754

      3   S      37       8482340.0000000    0.000000818623
      3   S      38       1270151.0000000    0.000006548987
      3   S      39        289057.0000000    0.000034484509
      3   S      40         81879.8500000    0.000145612630
      3   S      41         26716.5600000    0.000530877249
      3   S      42          9647.5840000    0.001719313712
      3   S      43          3764.1190000    0.005083344082
      3   S      44          1561.5660000    0.013519053150
      3   S      45           680.8147000    0.032188884481
      3   S      46           309.2412000    0.063284292808
      3   S      47           145.2574000    0.090004159277
      3   S      48            69.7390500    0.026354351138
      3   S      49            31.7703200   -0.251262012099
      3   S      50            15.3917600   -0.520907644337
      3   S      51             7.3415260   -0.056868639208
      3   S      52             3.3237160    0.724870110338
      3   S      53             1.4858670    0.535280112340
      3   S      54             0.2115000   -0.011376408833

      4   S      55       8482340.0000000   -0.000000322182
      4   S      56       1270151.0000000   -0.000002899636
      4   S      57        289057.0000000   -0.000014981451
      4   S      58         81879.8500000   -0.000063147623
      4   S      59         26716.5600000   -0.000230198862
      4   S      60          9647.5840000   -0.000745689664
      4   S      61          3764.1190000   -0.002204850817
      4   S      62          1561.5660000   -0.005870151514
      4   S      63           680.8147000   -0.013996219653
      4   S      64           309.2412000   -0.027636106289
      4   S      65           145.2574000   -0.039550065282
      4   S      66            69.7390500   -0.011844045553
      4   S      67            31.7703200    0.115999445484
      4   S      68            15.3917600    0.253920137348
      4   S      69             7.3415260    0.022886825089
      4   S      70             3.3237160   -0.459365613804
      4   S      71             1.4858670   -0.625893951029
      4   S      72             0.2115000    1.046339525967

      5   S      73             0.4210860    1.000000000000

      6   S      74             0.0889740    1.000000000000

      7   P      75          7423.8610000    0.000459888095
      7   P      76          1759.5170000    0.003982196918
      7   P      77           570.2292000    0.021463244409
      7   P      78           216.5800000    0.082459565479
      7   P      79            90.7342500    0.223884404601
      7   P      80            40.3087900    0.392060251256
      7   P      81            18.5555000    0.354214630915
      7   P      82             8.3965430    0.104861385592
      7   P      83             3.7673670    0.003366312861
      7   P      84             1.6297010    0.001849452126
      7   P      85             0.2225030    0.000229694054

      8   P      86          7423.8610000   -0.000183933273
      8   P      87          1759.5170000   -0.001603623364
      8   P      88           570.2292000   -0.008714684634
      8   P      89           216.5800000   -0.034482567311
      8   P      90            90.7342500   -0.097731519242
      8   P      91            40.3087900   -0.183894927481
      8   P      92            18.5555000   -0.150374370146
      8   P      93             8.3965430    0.201569541112
      8   P      94             3.7673670    0.550783570924
      8   P      95             1.6297010    0.395483295494
      8   P      96             0.2225030   -0.005537068181

      9   P      97          7423.8610000    0.000067575484
      9   P      98          1759.5170000    0.000590735054
      9   P      99           570.2292000    0.003209920148
      9   P     100           216.5800000    0.012757201241
      9   P     101            90.7342500    0.036296841475
      9   P     102            40.3087900    0.069067055648
      9   P     103            18.5555000    0.055084858236
      9   P     104             8.3965430   -0.092951347783
      9   P     105             3.7673670   -0.256062306212
      9   P     106             1.6297010   -0.211535143443
      9   P     107             0.2225030    0.991664800915

     10   P     108             0.5682630    1.000000000000

     11   P     109             0.0804050    1.000000000000

     12   D     110           321.0196000    0.001738948853
     12   D     111            96.2493100    0.014620594557
     12   D     112            36.6449600    0.064875906626
     12   D     113            15.4939600    0.184323725081
     12   D     114             6.8911380    0.331417629149
     12   D     115             3.0548310    0.389664464481
     12   D     116             1.3142410    0.283997092847

     13   D     117             0.5134300    1.000000000000

     14   D     118             0.1877000    1.000000000000

     15   F     119             0.4158000    1.000000000000

 H         

     16   S     120            33.8700000    0.025494863235
     16   S     121             5.0950000    0.190362765893
     16   S     122             1.1590000    0.852162022245

     17   S     123             0.3258000    1.000000000000

     18   S     124             0.1027000    1.000000000000

     19   P     125             1.4070000    1.000000000000

     20   P     126             0.3880000    1.000000000000

     21   D     127             1.0570000    1.000000000000

 H         

     22   S     128            33.8700000    0.025494863235
     22   S     129             5.0950000    0.190362765893
     22   S     130             1.1590000    0.852162022245

     23   S     131             0.3258000    1.000000000000

     24   S     132             0.1027000    1.000000000000

     25   P     133             1.4070000    1.000000000000

     26   P     134             0.3880000    1.000000000000

     27   D     135             1.0570000    1.000000000000

 H         

     28   S     136            33.8700000    0.025494863235
     28   S     137             5.0950000    0.190362765893
     28   S     138             1.1590000    0.852162022245

     29   S     139             0.3258000    1.000000000000

     30   S     140             0.1027000    1.000000000000

     31   P     141             1.4070000    1.000000000000

     32   P     142             0.3880000    1.000000000000

     33   D     143             1.0570000    1.000000000000

 TOTAL NUMBER OF BASIS SET SHELLS             =   33
 NUMBER OF CARTESIAN GAUSSIAN BASIS FUNCTIONS =   94
 NOTE: THIS RUN WILL RESTRICT THE MO VARIATION SPACE TO SPHERICAL HARMONICS.
 THE NUMBER OF ORBITALS KEPT IN THE VARIATIONAL SPACE WILL BE PRINTED LATER.
 NUMBER OF ELECTRONS                          =   35
 CHARGE OF MOLECULE                           =    1
 SPIN MULTIPLICITY                            =    2
 NUMBER OF OCCUPIED ORBITALS (ALPHA)          =   18
 NUMBER OF OCCUPIED ORBITALS (BETA )          =   17
 TOTAL NUMBER OF ATOMS                        =    4
 THE NUCLEAR REPULSION ENERGY IS       36.3850013485

     $CONTRL OPTIONS
     ---------------
 SCFTYP=MCSCF        RUNTYP=ENERGY       EXETYP=RUN     
 MPLEVL=       2     CITYP =NONE         CCTYP =NONE         VBTYP =NONE    
 DFTTYP=NONE         TDDFT =NONE    
 MULT  =       2     ICHARG=       1     NZVAR =       0     COORD =UNIQUE  
 PP    =NONE         RELWFN=NONE         LOCAL =NONE         NUMGRD=       F
 ISPHER=       1     NOSYM =       1     MAXIT =     200     UNITS =ANGS    
 PLTORB=       F     MOLPLT=       F     AIMPAC=       F     FRIEND=        
 NPRINT=       7     IREST =       0     GEOM  =INPUT   
 NORMF =       0     NORMP =       0     ITOL  =      20     ICUT  =       9
 INTTYP=RYSQUAD      GRDTYP=BEST         QMTTOL= 1.0E-05

     $SYSTEM OPTIONS
     ---------------
  REPLICATED MEMORY=   250000000 WORDS (ON EVERY NODE).
 DISTRIBUTED MEMDDI=        8000 MILLION WORDS IN AGGREGATE,
 MEMDDI DISTRIBUTED OVER   2 PROCESSORS IS  4000000000 WORDS/PROCESSOR.
 TOTAL MEMORY REQUESTED ON EACH PROCESSOR=  4250000000 WORDS.
 TIMLIM=      525600.00 MINUTES, OR     365.0 DAYS.
 PARALL= T  BALTYP=  DLB     KDIAG=    3  COREFL= F
 MXSEQ2=     300 MXSEQ3=     150  mem10=         0

          ----------------
          PROPERTIES INPUT
          ----------------

     MOMENTS            FIELD           POTENTIAL          DENSITY
 IEMOM =       1   IEFLD =       0   IEPOT =       0   IEDEN =       0
 WHERE =COMASS     WHERE =NUCLEI     WHERE =NUCLEI     WHERE =NUCLEI  
 OUTPUT=BOTH       OUTPUT=BOTH       OUTPUT=BOTH       OUTPUT=BOTH    
 IEMINT=       0   IEFINT=       0                     IEDINT=       0
                                                       MORB  =       0

     -------------------------------
     INTEGRAL TRANSFORMATION OPTIONS
     -------------------------------
     NWORD  =            0
     CUTOFF = 1.0E-09     MPTRAN =       0
     DIRTRF =       T     AOINTS =DUP     

          ----------------------
          MCSCF INPUT PARAMETERS
          ----------------------
 CONVERGER SELECTION: FOCAS = F  SOSCF = F  FULLNR = T  QUD = F  JACOBI = F
 SECULAR EQUATION METHOD CISTEP = GMCCI   
 --- GENERAL INPUT OPTIONS:
 MAXIT =     200  MICIT =       1  ACURCY= 1.000E-06
 DAMP  =   0.000  CANONC=       T  ENGTOL= 1.000E-10
 EKT   =       F  NPUNCH=       2  NWORD =         0
 REGENERATE CI AFTER CONVERGENCE = NONE    
 DIABATIZATION AFTER CONVERGENCE =        F
 --- INPUT FOR FULLNR CONVERGER:
 METHOD=DM2       FORS  =       F  DROPC =       T
 LINSER=       F  FCORE =       F  NORB  =      94

          ----------------------
          INTEGRAL INPUT OPTIONS
          ----------------------
 NOPK  =       1 NORDER=       0 SCHWRZ=       T

 ------------------------------------------
 MULTIREFERENCE PERTURBATION THEORY CONTROL
 ------------------------------------------
 MRPT=GMCPT    READ CONVERGED MCSCF VECTORS= F


     ------------------------------------------
     THE POINT GROUP IS C1 , NAXIS= 1, ORDER= 1
     ------------------------------------------

 -- VARIATIONAL SPACE WILL BE RESTRICTED TO PURE SPHERICAL HARMONICS ONLY --
 AFTER EXCLUDING CONTAMINANT COMBINATIONS FROM THE CARTESIAN GAUSSIAN BASIS
 SET, THE NUMBER OF SPHERICAL HARMONICS KEPT IN THE VARIATION SPACE IS   85

     DIMENSIONS OF THE SYMMETRY SUBSPACES ARE
 A   =   85

 ..... DONE SETTING UP THE RUN .....
 CPU     0: STEP CPU TIME=     0.14 TOTAL CPU TIME=          0.1 (      0.0 MIN)
 TOTAL WALL CLOCK TIME=          0.2 SECONDS, CPU UTILIZATION IS    63.64%

          ********************
          1 ELECTRON INTEGRALS
          ********************
 TIME TO DO   DIPOLE INTEGRALS=      0.01
 ...... END OF ONE-ELECTRON INTEGRALS ......
 CPU     0: STEP CPU TIME=     0.01 TOTAL CPU TIME=          0.2 (      0.0 MIN)
 TOTAL WALL CLOCK TIME=          0.2 SECONDS, CPU UTILIZATION IS    62.50%

          -------------
          GUESS OPTIONS
          -------------
          GUESS =MOREAD            NORB  =      85          NORDER=       0
          MIX   =       F          PRTMO =       F          PUNMO =       F
          TOLZ  = 1.0E-08          TOLE  = 1.0E-05
          SYMDEN=       F          PURIFY=       T

 INITIAL GUESS ORBITALS GENERATED BY MOREAD   ROUTINE.

 STATISTICS FOR GENERATION OF SYMMETRY ORBITAL -Q- MATRIX
 NUMBER OF CARTESIAN ATOMIC ORBITALS=         94
 NUMBER OF SPHERICAL CONTAMINANTS DROPPED=     9
 NUMBER OF LINEARLY DEPENDENT MOS DROPPED=     0
 TOTAL NUMBER OF MOS IN VARIATION SPACE=      85
 ORBITAL PURIFICATION WILL OCCUR

 SYMMETRIES FOR INITIAL GUESS ORBITALS FOLLOW.   BOTH SET(S).
    18 ORBITALS ARE OCCUPIED (   14 CORE ORBITALS).
     1=A        2=A        3=A        4=A        5=A        6=A        7=A   
     8=A        9=A       10=A       11=A       12=A       13=A       14=A   
    15=A       16=A       17=A       18=A       19=A       20=A       21=A   
    22=A       23=A       24=A       25=A       26=A       27=A       28=A   
    29=A       30=A       31=A       32=A       33=A       34=A       35=A   
    36=A       37=A       38=A       39=A       40=A       41=A       42=A   
    43=A       44=A       45=A       46=A       47=A       48=A       49=A   
    50=A       51=A       52=A       53=A       54=A       55=A       56=A   
    57=A       58=A       59=A       60=A       61=A       62=A       63=A   
    64=A       65=A       66=A       67=A       68=A       69=A       70=A   
    71=A       72=A       73=A       74=A       75=A       76=A       77=A   
    78=A       79=A       80=A       81=A       82=A       83=A       84=A   
    85=A   
 ...... END OF INITIAL ORBITAL SELECTION ......
 CPU     0: STEP CPU TIME=     0.07 TOTAL CPU TIME=          0.2 (      0.0 MIN)
 TOTAL WALL CLOCK TIME=          0.3 SECONDS, CPU UTILIZATION IS    68.75%

                    ----------------------
                    AO INTEGRAL TECHNOLOGY
                    ----------------------
     S,P,L SHELL ROTATED AXIS INTEGRALS, REPROGRAMMED BY
        KAZUYA ISHIMURA (IMS) AND JOSE SIERRA (SYNSTAR).
     S,P,D,L SHELL ROTATED AXIS INTEGRALS PROGRAMMED BY
        KAZUYA ISHIMURA (INSTITUTE FOR MOLECULAR SCIENCE).
     S,P,D,F,G SHELL TO TOTAL QUARTET ANGULAR MOMENTUM SUM 5,
        ERIC PROGRAM BY GRAHAM FLETCHER (ELORET AND NASA ADVANCED
        SUPERCOMPUTING DIVISION, AMES RESEARCH CENTER).
     S,P,D,F,G,L SHELL GENERAL RYS QUADRATURE PROGRAMMED BY
        MICHEL DUPUIS (PACIFIC NORTHWEST NATIONAL LABORATORY).

          --------------------
          2 ELECTRON INTEGRALS
          --------------------

 DIRECT SCF METHOD SKIPS INTEGRAL STORAGE ON DISK.
 DIRECT TRANSFORMATION SKIPS AO INTEGRAL STORAGE ON DISK.
  ...... END OF TWO-ELECTRON INTEGRALS .....
 STEP CPU TIME =     0.02 TOTAL CPU TIME =          0.2 (      0.0 MIN)
 TOTAL WALL CLOCK TIME=          0.3 SECONDS, CPU UTILIZATION IS    68.57%
 DDI: Creating Array [0] - 8836 x 231 = 2041116 words.
 DDI: Creating Array [1] - 64 x 4851 = 310464 words.
 DDI: Creating Array [2] - 231 x 231 = 53361 words.
 DDI: Creating Array [3] - 4465 x 231 = 1031415 words.

          -----------------
          MCSCF CALCULATION
          -----------------

 ----- NUCLEAR ENERGY ----- =        36.3850013485

     -------------------------------------------------
     GMC-PT/GMC-QDPT or general MCSCF input parameters
     -------------------------------------------------
 # of frozen core orbs. =         5 ->         0
 # of doubly occ. orbs. =         9
 # of active      orbs. =         7
 # of virtual     orbs. =        64
 # of active electrons  =         7
 # of states in CI      =         4
 Highest state in CI    =         4
 kstate =  1 1 1 1
 avecoe =  0.250 0.250 0.250 0.250
 State symmetry           = A           
 Assigned symmetry number = 1

 <<<Act. MO sym.: 1111111

 <<<Division of 1-ext.:  0 0
 <<<Division of 2-ext.:  0 1

 *** Reference space

 Reference type: ORMAS (= Occupation restricted multiple active space)
 # of orbitals          =  7
 # of minimum electrons =  7
 # of maximum electrons =  7
 State symmetry    =    1 (input)
 2*Sz              =    1 (input)
 Spin multiplicity =    2 (input)
 Dimension of reference space =      1225  (from      3432 walks)

 Dimension of reference space =      1225  (from      1225 walks)

 <<<Ionized spaces for Ref-CI:
      0:         1225 /   -1-0:         1960 /  0-1-0:         2891

 EVALUATING EXCHANGE INTEGRALS FOR DIRECT INTEGRAL TRANSFORMATION
 SCHWARZ INEQUALITY OVERHEAD:      4465 INTEGRALS, T=        0.21

     --------------------------------------------
     PARTIAL TWO ELECTRON INTEGRAL TRANSFORMATION
     --------------------------------------------

 NUMBER OF CORE MOLECULAR ORBITALS     =   14
 NUMBER OF OCCUPIED MOLECULAR ORBITALS =   21
 TOTAL NUMBER OF MOLECULAR ORBITALS    =   85
 TOTAL NUMBER OF ATOMIC ORBITALS       =   94
 THRESHOLD FOR KEEPING TRANSFORMED 2E- INTEGRALS = 1.000E-09

 -------------------------------     ------------------------------
 DISTRIBUTED DATA TRANSFORMATION     PROGRAM WRITTEN BY G. FLETCHER
 -------------------------------     ------------------------------

 THE DISTRIBUTED MEMORY REQUIRED FOR THIS STEP IS MEMDDI=         4 MWORDS
 CREATING DISTRIBUTED STORAGE FOR [VIR OCC|VIR OCC] INTEGRALS
 CREATING DISTRIBUTED STORAGE FOR [VIR OCC|OCC OCC] INTEGRALS
 CREATING DISTRIBUTED STORAGE FOR [OCC OCC|OCC OCC] INTEGRALS
 CREATING DISTRIBUTED STORAGE FOR [VIR VIR|OCC OCC] INTEGRALS
 FOR    2 PROCESSORS, THE REPLICATED MEMORY NEEDED IS      615709 WORDS.
 SCHWARZ INEQUALITY OVERHEAD:      4465 INTEGRALS, T=        0.20

      DIRECT 4-INDEX TRANSFORMATION 
      SCHWARZ INEQUALITY TEST SKIPPED       1074 INTEGRAL BLOCKS
 ----- FROZEN CORE ENERGY =     -2258.5583057099
 ... END OF INTEGRAL TRANSFORMATION ...
 CPU     0: STEP CPU TIME=    13.94 TOTAL CPU TIME=         14.2 (      0.2 MIN)
 TOTAL WALL CLOCK TIME=         14.3 SECONDS, CPU UTILIZATION IS    99.02%

     --------------------------------     -----------------------------
     MCHF NEWTON-RAPHSON OPTIMIZATION     CODE WRITTEN BY MICHEL DUPUIS
     --------------------------------     -----------------------------
     PARALLEL VERSION WRITTEN BY G. FLETCHER (ELORET)
     NASA ADVANCED SUPERCOMPUTING DIVISION, AMES RESEARCH CENTER

 NUMBER OF INDEPENDENT ORBITAL ROTATION PARAMETERS =   408
 ..... DONE SOLVING NEWTON-RAPHSON EQUATIONS .....
 CPU     0: STEP CPU TIME=     0.62 TOTAL CPU TIME=         14.8 (      0.2 MIN)
 TOTAL WALL CLOCK TIME=         15.3 SECONDS, CPU UTILIZATION IS    96.92%
 ..... DONE WITH NTN-RPH ORBITAL ROTATIONS ..... 
 CPU     0: STEP CPU TIME=     0.00 TOTAL CPU TIME=         14.8 (      0.2 MIN)
 TOTAL WALL CLOCK TIME=         15.3 SECONDS, CPU UTILIZATION IS    96.92%
 MAXIMUM MEMORY USED BY NTN-RPH CODE WAS    197978 WORDS.

 ITER     TOTAL ENERGY      DEL(E)  LAGRANGIAN ASYMMETRY   SQCDF  MICIT   DAMP
   1    -2235.516970828 -0.516970828  0.000001   32   16 5.716E-10  1   0.0000
   2    -2235.516970828 -0.000000000  0.000001   32   16 5.716E-10  1   0.0000

          --------------------
          LAGRANGIAN CONVERGED
          --------------------

 FINAL MCSCF ENERGY IS    -2235.5169708284 AFTER   2 ITERATIONS

 -MCCI- BASED ON OPTIMIZED ORBITALS
 ----------------------------------

 PLEASE NOTE: IF THE ACTIVE ORBITALS ARE CANONICALIZED BELOW,
 THE FOLLOWING CI EXPANSION COEFFICIENTS AND THE DENSITY DO NOT
 CORRESPOND TO THE PRINTED ORBITALS.  THE PRINTED EXPANSIONS MATCH
 THE ORBITALS USED DURING THE LAST ITERATION.  IF YOU WISH TO SEE
 CI EXPANSIONS BASED ON THE CANONICAL (OR NATURAL) ORBITALS, YOU
 MUST RUN A CI CALCULATION WITH THAT ORBITAL CHOICE READ IN $VEC.

 Averaged energy =   -2235.516970828

 State #    1  Energy =   -2235.693429988  S =  0.500

      Det      Coef    Occupancy (Ignoring core)
      ---      ----    --------- --------- -----
        1   -0.976693  11110001110000
      107    0.073563  11101000111000
      143   -0.060804  11011001100100
      179   -0.060804  10111001010100
      393   -0.059089  10110101010010
      717   -0.059089  11010011100001

 State #    2  Energy =   -2235.481694995  S =  0.500

      Det      Coef    Occupancy (Ignoring core)
      ---      ----    --------- --------- -----
        2    0.951845  11101001110000
      106   -0.172547  11110000111000
      110   -0.057394  01111000111000
      156    0.080892  11100011100100
      181   -0.080892  11100101010100
      212    0.064060  11101000110100
      387   -0.077768  11101001010010
      396    0.060963  10101101010010
      702    0.077768  11101001100001
      720    0.060963  11001011100001

 State #    3  Energy =   -2235.446379165  S =  0.500

      Det      Coef    Occupancy (Ignoring core)
      ---      ----    --------- --------- -----
       16    0.113120  11100011110000
       36   -0.913230  11110001101000
       39   -0.099488  10111001101000
       52   -0.088769  11010011101000
       71    0.263606  11110001011000
       73   -0.099488  11011001011000
      108   -0.053842  11011000111000
      142    0.115503  11101001100100
      249   -0.066621  10111001001100
      463   -0.050803  10110101001010

 State #    4  Energy =   -2235.446379165  S =  0.500

      Det      Coef    Occupancy (Ignoring core)
      ---      ----    --------- --------- -----
        6   -0.113120  11100101110000
       36   -0.263606  11110001101000
       38   -0.099488  11011001101000
       71   -0.913230  11110001011000
       74    0.099488  10111001011000
       78    0.088769  10110101011000
      109   -0.053842  10111000111000
      177    0.115503  11101001010100
      248    0.066621  11011001001100
      822    0.050803  11010011001001

 DENSITY MATRIX OVER ACTIVE MO-S

             1           2           3           4           5

    1    1.9718951
    2    0.0000000   1.7203505
    3    0.0000000  -0.0000000   1.7203505
    4   -0.0000000  -0.0000000   0.0000000   1.2381312
    5    0.0032525   0.0000000  -0.0000000  -0.0000000   0.2905096
    6    0.0000000   0.0008946   0.0000011  -0.0000000   0.0000000
    7   -0.0000000  -0.0000011   0.0008946   0.0000000   0.0000000

             6           7

    6    0.0293816
    7    0.0000000   0.0293816

 FORMING THE "STANDARD FOCK OPERATOR" IN DIRECT AO INTEGRAL MODE...
 ONLY THE   14 CORE AND   64 VIRTUAL ORBITALS WILL BE CANONICALIZED

          ----------------------
          MCSCF NATURAL ORBITALS
          ----------------------

                      1          2          3          4          5
                 -432.8954   -56.6209   -50.4654   -50.4653   -50.4653
                     A          A          A          A          A   
    1  AS 1  S    0.999999   0.000003   0.000000  -0.000000  -0.000000
    2  AS 1  S    0.000001   1.000103   0.000000  -0.000000   0.000000
    3  AS 1  S   -0.000004   0.000135   0.000000  -0.000000  -0.000000
    4  AS 1  S   -0.000005   0.000143   0.000000  -0.000000  -0.000000
    5  AS 1  S    0.000016  -0.000426   0.000000   0.000000  -0.000000
    6  AS 1  S    0.000005  -0.000140   0.000000   0.000000  -0.000000
    7  AS 1  X   -0.000000   0.000000   0.000000   0.975151  -0.221655
    8  AS 1  Y   -0.000000  -0.000000   0.000000   0.221655   0.975151
    9  AS 1  Z   -0.000000  -0.000000   1.000026  -0.000000  -0.000000
   10  AS 1  X   -0.000000  -0.000000   0.000000  -0.000003   0.000001
   11  AS 1  Y   -0.000000  -0.000000   0.000000  -0.000001  -0.000003
   12  AS 1  Z   -0.000000  -0.000000   0.000001  -0.000000  -0.000000
   13  AS 1  X   -0.000000  -0.000000   0.000000  -0.000086   0.000020
   14  AS 1  Y   -0.000000  -0.000000   0.000000  -0.000020  -0.000086
   15  AS 1  Z   -0.000000  -0.000000  -0.000002  -0.000000  -0.000000
   16  AS 1  X    0.000000   0.000000   0.000000  -0.000488   0.000111
   17  AS 1  Y   -0.000000  -0.000000   0.000000  -0.000111  -0.000488
   18  AS 1  Z   -0.000000  -0.000000  -0.000447  -0.000000  -0.000000
   19  AS 1  X    0.000000  -0.000000   0.000000  -0.000088   0.000020
   20  AS 1  Y   -0.000000  -0.000000   0.000000  -0.000020  -0.000088
   21  AS 1  Z   -0.000000  -0.000000  -0.000069  -0.000000  -0.000000
   22  AS 1 XX    0.000000  -0.000001   0.000000   0.000002  -0.000000
   23  AS 1 YY    0.000000  -0.000001   0.000000  -0.000002   0.000000
   24  AS 1 ZZ   -0.000000   0.000001   0.000000  -0.000000  -0.000000
   25  AS 1 XY   -0.000000  -0.000000   0.000000  -0.000000  -0.000002
   26  AS 1 XZ   -0.000000  -0.000000   0.000000  -0.000000  -0.000000
   27  AS 1 YZ   -0.000000  -0.000000   0.000000  -0.000000  -0.000000
   28  AS 1 XX    0.000000  -0.000002   0.000000  -0.000054   0.000012
   29  AS 1 YY    0.000000  -0.000002   0.000000   0.000054  -0.000012
   30  AS 1 ZZ   -0.000000   0.000004   0.000000   0.000000  -0.000000
   31  AS 1 XY   -0.000000  -0.000000   0.000000   0.000014   0.000063
   32  AS 1 XZ   -0.000000  -0.000000   0.000000  -0.000000  -0.000000
   33  AS 1 YZ   -0.000000  -0.000000   0.000000  -0.000000  -0.000000
   34  AS 1 XX    0.000000  -0.000002   0.000000  -0.000015   0.000004
   35  AS 1 YY    0.000000  -0.000002   0.000000   0.000015  -0.000004
   36  AS 1 ZZ   -0.000000   0.000004   0.000000  -0.000000   0.000000
   37  AS 1 XY   -0.000000  -0.000000   0.000000   0.000004   0.000018
   38  AS 1 XZ   -0.000000  -0.000000   0.000000  -0.000000  -0.000000
   39  AS 1 YZ   -0.000000  -0.000000   0.000000  -0.000000  -0.000000
   40  AS 1 XXX   0.000000  -0.000006   0.000000  -0.000013   0.000003
   41  AS 1 YYY  -0.000000  -0.000000   0.000000  -0.000003  -0.000013
   42  AS 1 ZZZ  -0.000000  -0.000000  -0.000000  -0.000000  -0.000000
   43  AS 1 XXY  -0.000000  -0.000000   0.000000  -0.000001  -0.000006
   44  AS 1 XXZ  -0.000000  -0.000000   0.000000  -0.000000  -0.000000
   45  AS 1 YYX  -0.000000   0.000008   0.000000  -0.000006   0.000001
   46  AS 1 YYZ  -0.000000  -0.000000   0.000000  -0.000000  -0.000000
   47  AS 1 ZZX   0.000000  -0.000000   0.000000   0.000023  -0.000005
   48  AS 1 ZZY  -0.000000  -0.000000   0.000000   0.000005   0.000023
   49  AS 1 XYZ  -0.000000  -0.000000   0.000000  -0.000000  -0.000000
   50  H  2  S   -0.000000   0.000006   0.000000   0.000004  -0.000014
   51  H  2  S   -0.000000   0.000011   0.000000  -0.000021   0.000067
   52  H  2  S   -0.000001   0.000029   0.000000  -0.000014   0.000045
   53  H  2  X   -0.000000   0.000002   0.000000  -0.000003   0.000008
   54  H  2  Y    0.000000  -0.000003   0.000000   0.000004  -0.000014
   55  H  2  Z   -0.000000  -0.000000   0.000001  -0.000000  -0.000000
   56  H  2  X   -0.000000   0.000004   0.000000  -0.000012   0.000034
   57  H  2  Y    0.000000  -0.000008   0.000000   0.000018  -0.000060
   58  H  2  Z   -0.000000  -0.000000  -0.000005  -0.000000  -0.000000
   59  H  2 XX    0.000000  -0.000001   0.000000   0.000004  -0.000003
   60  H  2 YY   -0.000000   0.000005   0.000000  -0.000011   0.000024
   61  H  2 ZZ    0.000000  -0.000004   0.000000   0.000006  -0.000021
   62  H  2 XY    0.000000  -0.000006   0.000000   0.000007  -0.000030
   63  H  2 XZ   -0.000000  -0.000000   0.000003  -0.000000  -0.000000
   64  H  2 YZ   -0.000000  -0.000000  -0.000005  -0.000000  -0.000000
   65  H  3  S   -0.000000   0.000006   0.000000   0.000010   0.000010
   66  H  3  S   -0.000000   0.000011   0.000000  -0.000048  -0.000051
   67  H  3  S   -0.000001   0.000029   0.000000  -0.000032  -0.000035
   68  H  3  X   -0.000000   0.000002   0.000000  -0.000006  -0.000006
   69  H  3  Y   -0.000000   0.000003   0.000000  -0.000010  -0.000011
   70  H  3  Z   -0.000000  -0.000000   0.000001  -0.000000  -0.000000
   71  H  3  X   -0.000000   0.000004   0.000000  -0.000025  -0.000025
   72  H  3  Y   -0.000000   0.000008   0.000000  -0.000042  -0.000046
   73  H  3  Z   -0.000000  -0.000000  -0.000005  -0.000000  -0.000000
   74  H  3 XX    0.000000  -0.000001   0.000000   0.000005   0.000001
   75  H  3 YY   -0.000000   0.000005   0.000000  -0.000020  -0.000017
   76  H  3 ZZ    0.000000  -0.000004   0.000000   0.000015   0.000016
   77  H  3 XY   -0.000000   0.000006   0.000000  -0.000020  -0.000024
   78  H  3 XZ   -0.000000  -0.000000   0.000003  -0.000000  -0.000000
   79  H  3 YZ   -0.000000  -0.000000   0.000005  -0.000000  -0.000000
   80  H  4  S   -0.000000   0.000006   0.000000  -0.000014   0.000003
   81  H  4  S   -0.000000   0.000011   0.000000   0.000068  -0.000016
   82  H  4  S   -0.000001   0.000029   0.000000   0.000046  -0.000010
   83  H  4  X    0.000000  -0.000004   0.000000  -0.000016   0.000004
   84  H  4  Y   -0.000000  -0.000000   0.000000  -0.000000  -0.000001
   85  H  4  Z   -0.000000  -0.000000   0.000001  -0.000000  -0.000000
   86  H  4  X    0.000000  -0.000009   0.000000  -0.000070   0.000016
   87  H  4  Y   -0.000000  -0.000000   0.000000  -0.000000  -0.000002
   88  H  4  Z   -0.000000  -0.000000  -0.000005  -0.000000  -0.000000
   89  H  4 XX   -0.000000   0.000008   0.000000   0.000041  -0.000009
   90  H  4 YY    0.000000  -0.000004   0.000000  -0.000019   0.000004
   91  H  4 ZZ    0.000000  -0.000004   0.000000  -0.000021   0.000005
   92  H  4 XY   -0.000000  -0.000000   0.000000  -0.000001  -0.000004
   93  H  4 XZ   -0.000000  -0.000000  -0.000006  -0.000000  -0.000000
   94  H  4 YZ   -0.000000  -0.000000   0.000000  -0.000000  -0.000000

                      6          7          8          9         10
                   -8.3450    -6.1998    -6.1998    -6.1964    -2.4338
                     A          A          A          A          A   
    1  AS 1  S   -0.000085   0.000000  -0.000000  -0.000000   0.000000
    2  AS 1  S   -0.000609   0.000000  -0.000000  -0.000000  -0.000000
    3  AS 1  S    0.975257   0.000000  -0.000000  -0.000000  -0.000000
    4  AS 1  S   -0.001924   0.000000  -0.000000  -0.000000  -0.000000
    5  AS 1  S    0.036270  -0.000000   0.000000  -0.000000   0.000000
    6  AS 1  S    0.004132   0.000000  -0.000000  -0.000000   0.000000
    7  AS 1  X    0.000000   0.000068  -0.000080  -0.000000  -0.000024
    8  AS 1  Y    0.000000  -0.000080  -0.000068  -0.000000  -0.000215
    9  AS 1  Z    0.000000   0.000000  -0.000000   0.000031   0.000000
   10  AS 1  X    0.000000  -0.630582   0.742838  -0.000000  -0.000119
   11  AS 1  Y   -0.000000   0.742838   0.630582  -0.000000  -0.001048
   12  AS 1  Z    0.000000   0.000000  -0.000000   0.975679   0.000000
   13  AS 1  X   -0.000000   0.000647  -0.000762  -0.000000  -0.000527
   14  AS 1  Y   -0.000000  -0.000762  -0.000647  -0.000000  -0.004634
   15  AS 1  Z    0.000000   0.000000  -0.000000   0.000431   0.000000
   16  AS 1  X    0.000000  -0.030931   0.036437  -0.000000   0.000214
   17  AS 1  Y    0.000000   0.036437   0.030931  -0.000000   0.001878
   18  AS 1  Z    0.000000   0.000000  -0.000000   0.046644   0.000000
   19  AS 1  X   -0.000000  -0.001338   0.001576  -0.000000   0.000290
   20  AS 1  Y    0.000000   0.001576   0.001338  -0.000000   0.002545
   21  AS 1  Z    0.000000   0.000000  -0.000000   0.001652   0.000000
   22  AS 1 XX    0.000324  -0.000394   0.000464  -0.000000  -0.094686
   23  AS 1 YY    0.000324   0.000394  -0.000464  -0.000000   0.094686
   24  AS 1 ZZ   -0.000647  -0.000000   0.000000  -0.000000   0.000000
   25  AS 1 XY    0.000000  -0.000535  -0.000454  -0.000000   0.960490
   26  AS 1 XZ    0.000000   0.000000  -0.000000   0.000000   0.000000
   27  AS 1 YZ    0.000000   0.000000  -0.000000  -0.000000   0.000000
   28  AS 1 XX    0.000051   0.000214  -0.000252  -0.000000  -0.008290
   29  AS 1 YY    0.000051  -0.000214   0.000252  -0.000000   0.008290
   30  AS 1 ZZ   -0.000101  -0.000000   0.000000  -0.000000   0.000000
   31  AS 1 XY    0.000000   0.000291   0.000247  -0.000000   0.084096
   32  AS 1 XZ    0.000000   0.000000  -0.000000  -0.000000   0.000000
   33  AS 1 YZ    0.000000   0.000000  -0.000000  -0.000000   0.000000
   34  AS 1 XX   -0.000015   0.000139  -0.000163  -0.000000  -0.000051
   35  AS 1 YY   -0.000015  -0.000139   0.000163  -0.000000   0.000051
   36  AS 1 ZZ    0.000031  -0.000000   0.000000  -0.000000   0.000000
   37  AS 1 XY    0.000000   0.000189   0.000160  -0.000000   0.000518
   38  AS 1 XZ    0.000000   0.000000  -0.000000  -0.000000   0.000000
   39  AS 1 YZ    0.000000   0.000000  -0.000000  -0.000000   0.000000
   40  AS 1 XXX   0.000049  -0.000035   0.000041  -0.000000  -0.000050
   41  AS 1 YYY   0.000000   0.000041   0.000035  -0.000000  -0.000438
   42  AS 1 ZZZ   0.000000   0.000000  -0.000000  -0.000215   0.000000
   43  AS 1 XXY   0.000000   0.000018   0.000015  -0.000000  -0.000196
   44  AS 1 XXZ   0.000000   0.000000  -0.000000   0.000144   0.000000
   45  AS 1 YYX  -0.000066  -0.000015   0.000018  -0.000000  -0.000022
   46  AS 1 YYZ   0.000000   0.000000  -0.000000   0.000144   0.000000
   47  AS 1 ZZX   0.000000   0.000062  -0.000073  -0.000000   0.000089
   48  AS 1 ZZY   0.000000  -0.000073  -0.000062  -0.000000   0.000783
   49  AS 1 XYZ   0.000000   0.000000  -0.000000  -0.000000   0.000000
   50  H  2  S    0.000002   0.000422   0.000077  -0.000000  -0.004450
   51  H  2  S    0.000333   0.001960   0.000357  -0.000000  -0.002143
   52  H  2  S   -0.000677  -0.000685  -0.000125  -0.000000  -0.001381
   53  H  2  X   -0.000004   0.000014   0.000024  -0.000000  -0.000418
   54  H  2  Y    0.000006  -0.000034   0.000006  -0.000000   0.001259
   55  H  2  Z    0.000000   0.000000  -0.000000   0.000011   0.000000
   56  H  2  X    0.000006   0.000230   0.000136  -0.000000   0.000576
   57  H  2  Y   -0.000010  -0.000437  -0.000025  -0.000000   0.000208
   58  H  2  Z    0.000000   0.000000  -0.000000   0.000124   0.000000
   59  H  2 XX   -0.000004  -0.000039  -0.000034  -0.000000   0.000265
   60  H  2 YY    0.000025   0.000130   0.000051  -0.000000  -0.000653
   61  H  2 ZZ   -0.000021  -0.000091  -0.000017  -0.000000   0.000388
   62  H  2 XY   -0.000029  -0.000182  -0.000015  -0.000000   0.000546
   63  H  2 XZ    0.000000   0.000000  -0.000000  -0.000018   0.000000
   64  H  2 YZ    0.000000   0.000000  -0.000000   0.000030   0.000000
   65  H  3  S    0.000002  -0.000145  -0.000404  -0.000000   0.005076
   66  H  3  S    0.000333  -0.000671  -0.001876  -0.000000   0.002445
   67  H  3  S   -0.000677   0.000234   0.000655  -0.000000   0.001575
   68  H  3  X   -0.000004  -0.000026  -0.000010  -0.000000   0.000586
   69  H  3  Y   -0.000006   0.000001  -0.000034  -0.000000   0.001374
   70  H  3  Z    0.000000   0.000000  -0.000000   0.000011   0.000000
   71  H  3  X    0.000006  -0.000172  -0.000205  -0.000000  -0.000412
   72  H  3  Y    0.000010  -0.000096  -0.000427  -0.000000   0.000096
   73  H  3  Z    0.000000   0.000000  -0.000000   0.000124   0.000000
   74  H  3 XX   -0.000004   0.000040   0.000033  -0.000000  -0.000237
   75  H  3 YY    0.000025  -0.000071  -0.000120  -0.000000   0.000679
   76  H  3 ZZ   -0.000021   0.000031   0.000087  -0.000000  -0.000442
   77  H  3 XY    0.000029  -0.000044  -0.000177  -0.000000   0.000666
   78  H  3 XZ    0.000000   0.000000  -0.000000  -0.000018   0.000000
   79  H  3 YZ    0.000000   0.000000  -0.000000  -0.000030   0.000000
   80  H  4  S    0.000002  -0.000278   0.000327  -0.000000  -0.000626
   81  H  4  S    0.000333  -0.001289   0.001518  -0.000000  -0.000302
   82  H  4  S   -0.000677   0.000450  -0.000531  -0.000000  -0.000194
   83  H  4  X    0.000007   0.000024  -0.000028  -0.000000   0.000183
   84  H  4  Y    0.000000   0.000019   0.000016  -0.000000   0.000447
   85  H  4  Z    0.000000   0.000000  -0.000000   0.000011   0.000000
   86  H  4  X   -0.000011   0.000324  -0.000382  -0.000000  -0.000015
   87  H  4  Y    0.000000   0.000082   0.000070  -0.000000   0.001008
   88  H  4  Z    0.000000   0.000000  -0.000000   0.000124   0.000000
   89  H  4 XX    0.000040  -0.000147   0.000174  -0.000000  -0.000117
   90  H  4 YY   -0.000018   0.000088  -0.000103  -0.000000   0.000063
   91  H  4 ZZ   -0.000021   0.000060  -0.000070  -0.000000   0.000055
   92  H  4 XY    0.000000   0.000027   0.000023  -0.000000  -0.000310
   93  H  4 XZ    0.000000   0.000000  -0.000000   0.000035   0.000000
   94  H  4 YZ    0.000000   0.000000  -0.000000  -0.000000   0.000000

                     11         12         13         14         15
                   -2.4338    -2.4296    -2.4287    -2.4287     1.9719
                     A          A          A          A          A   
    1  AS 1  S    0.000000  -0.000096   0.000000   0.000000   0.000444
    2  AS 1  S    0.000000  -0.000644   0.000000   0.000000   0.002665
    3  AS 1  S    0.000000  -0.001509   0.000000   0.000000   0.004369
    4  AS 1  S    0.000000  -0.003271   0.000000   0.000000   0.556862
    5  AS 1  S    0.000000   0.000596   0.000000   0.000000   0.235461
    6  AS 1  S   -0.000000   0.003473   0.000000   0.000000   0.130890
    7  AS 1  X    0.000215  -0.000000   0.000000   0.000000   0.000000
    8  AS 1  Y   -0.000024  -0.000000   0.000000   0.000000   0.000000
    9  AS 1  Z    0.000000  -0.000000   0.000000   0.000000   0.000000
   10  AS 1  X    0.001048   0.000000   0.000000   0.000000   0.000000
   11  AS 1  Y   -0.000119   0.000000   0.000000   0.000000  -0.000000
   12  AS 1  Z    0.000000  -0.000000   0.000000   0.000000   0.000000
   13  AS 1  X    0.004634   0.000000   0.000000   0.000000   0.000000
   14  AS 1  Y   -0.000527   0.000000   0.000000   0.000000  -0.000000
   15  AS 1  Z    0.000000  -0.000000   0.000000   0.000000   0.000000
   16  AS 1  X   -0.001878  -0.000000   0.000000   0.000000   0.000000
   17  AS 1  Y    0.000214  -0.000000   0.000000   0.000000   0.000000
   18  AS 1  Z    0.000000  -0.000000   0.000000   0.000000   0.000000
   19  AS 1  X   -0.002545  -0.000000   0.000000   0.000000   0.000000
   20  AS 1  Y    0.000290  -0.000000   0.000000   0.000000   0.000000
   21  AS 1  Z    0.000000  -0.000000   0.000000   0.000000   0.000000
   22  AS 1 XX    0.831809  -0.484045   0.000000   0.000000  -0.014322
   23  AS 1 YY   -0.831809  -0.484045   0.000000   0.000000  -0.014322
   24  AS 1 ZZ   -0.000000   0.968089   0.000000   0.000000   0.028644
   25  AS 1 XY    0.109334  -0.000000   0.000000   0.000000   0.000000
   26  AS 1 XZ    0.000000  -0.000000   0.968335  -0.009216   0.000000
   27  AS 1 YZ    0.000000  -0.000000   0.009216   0.968335   0.000000
   28  AS 1 XX    0.072829  -0.041111   0.000000   0.000000   0.008456
   29  AS 1 YY   -0.072829  -0.041111   0.000000   0.000000   0.008456
   30  AS 1 ZZ   -0.000000   0.082222   0.000000   0.000000  -0.016912
   31  AS 1 XY    0.009573  -0.000000   0.000000   0.000000   0.000000
   32  AS 1 XZ    0.000000  -0.000000   0.082209  -0.000782   0.000000
   33  AS 1 YZ    0.000000  -0.000000   0.000782   0.082209   0.000000
   34  AS 1 XX    0.000448  -0.000672   0.000000   0.000000   0.004368
   35  AS 1 YY   -0.000448  -0.000672   0.000000   0.000000   0.004368
   36  AS 1 ZZ    0.000000   0.001344   0.000000   0.000000  -0.008735
   37  AS 1 XY    0.000059  -0.000000   0.000000   0.000000   0.000000
   38  AS 1 XZ    0.000000  -0.000000   0.000962  -0.000009   0.000000
   39  AS 1 YZ    0.000000  -0.000000   0.000009   0.000962   0.000000
   40  AS 1 XXX   0.000438  -0.001017   0.000000   0.000000   0.013469
   41  AS 1 YYY  -0.000050  -0.000000   0.000000   0.000000   0.000000
   42  AS 1 ZZZ   0.000000  -0.000000  -0.000000   0.000000   0.000000
   43  AS 1 XXY  -0.000022  -0.000000   0.000000   0.000000   0.000000
   44  AS 1 XXZ   0.000000  -0.000000   0.000236  -0.000002   0.000000
   45  AS 1 YYX   0.000196   0.001364   0.000000   0.000000  -0.018071
   46  AS 1 YYZ   0.000000  -0.000000  -0.000236   0.000002   0.000000
   47  AS 1 ZZX  -0.000783  -0.000000   0.000000   0.000000  -0.000000
   48  AS 1 ZZY   0.000089  -0.000000   0.000000   0.000000   0.000000
   49  AS 1 XYZ   0.000000  -0.000000  -0.000003  -0.000273   0.000000
   50  H  2  S   -0.003292  -0.002814   0.000000   0.000000   0.074526
   51  H  2  S   -0.001586  -0.000901   0.000000   0.000000   0.107613
   52  H  2  S   -0.001022  -0.000355   0.000000   0.000000   0.010136
   53  H  2  X   -0.000794  -0.000444   0.000000   0.000000   0.003494
   54  H  2  Y    0.000652   0.000769   0.000000   0.000000  -0.006051
   55  H  2  Z    0.000000  -0.000000  -0.000218   0.000386   0.000000
   56  H  2  X   -0.000666   0.000064   0.000000   0.000000   0.006363
   57  H  2  Y   -0.000477  -0.000111   0.000000   0.000000  -0.011021
   58  H  2  Z    0.000000  -0.000000  -0.000564   0.000999   0.000000
   59  H  2 XX   -0.000096  -0.000016   0.000000   0.000000   0.000015
   60  H  2 YY   -0.000191  -0.000386   0.000000   0.000000   0.001571
   61  H  2 ZZ    0.000287   0.000402   0.000000   0.000000  -0.001587
   62  H  2 XY    0.000598   0.000370   0.000000   0.000000  -0.001556
   63  H  2 XZ    0.000000  -0.000000  -0.000025   0.000227   0.000000
   64  H  2 YZ    0.000000  -0.000000   0.000224  -0.000292   0.000000
   65  H  3  S   -0.002208  -0.002814   0.000000   0.000000   0.074526
   66  H  3  S   -0.001063  -0.000901   0.000000   0.000000   0.107613
   67  H  3  S   -0.000685  -0.000355   0.000000   0.000000   0.010136
   68  H  3  X   -0.000680  -0.000444   0.000000   0.000000   0.003494
   69  H  3  Y   -0.000352  -0.000769   0.000000   0.000000   0.006051
   70  H  3  Z    0.000000  -0.000000  -0.000225  -0.000382   0.000000
   71  H  3  X   -0.000779   0.000064   0.000000   0.000000   0.006363
   72  H  3  Y    0.000511   0.000111   0.000000   0.000000   0.011021
   73  H  3  Z    0.000000  -0.000000  -0.000583  -0.000988   0.000000
   74  H  3 XX   -0.000153  -0.000016   0.000000   0.000000   0.000015
   75  H  3 YY   -0.000040  -0.000386   0.000000   0.000000   0.001571
   76  H  3 ZZ    0.000192   0.000402   0.000000   0.000000  -0.001587
   77  H  3 XY   -0.000460  -0.000370   0.000000   0.000000   0.001556
   78  H  3 XZ    0.000000  -0.000000  -0.000030  -0.000226   0.000000
   79  H  3 YZ    0.000000  -0.000000  -0.000229  -0.000287   0.000000
   80  H  4  S    0.005500  -0.002814   0.000000   0.000000   0.074526
   81  H  4  S    0.002649  -0.000901   0.000000   0.000000   0.107613
   82  H  4  S    0.001707  -0.000355   0.000000   0.000000   0.010136
   83  H  4  X   -0.001606   0.000888   0.000000   0.000000  -0.006987
   84  H  4  Y    0.000051  -0.000000   0.000000   0.000000   0.000000
   85  H  4  Z    0.000000  -0.000000   0.000444  -0.000004   0.000000
   86  H  4  X    0.000133  -0.000128   0.000000   0.000000  -0.012726
   87  H  4  Y    0.000115  -0.000000   0.000000   0.000000   0.000000
   88  H  4  Z    0.000000  -0.000000   0.001147  -0.000011   0.000000
   89  H  4 XX    0.001029  -0.000571   0.000000   0.000000   0.002349
   90  H  4 YY   -0.000550   0.000169   0.000000   0.000000  -0.000762
   91  H  4 ZZ   -0.000479   0.000402   0.000000   0.000000  -0.001587
   92  H  4 XY   -0.000035  -0.000000   0.000000   0.000000   0.000000
   93  H  4 XZ    0.000000  -0.000000  -0.000420   0.000004   0.000000
   94  H  4 YZ    0.000000  -0.000000   0.000001   0.000103   0.000000

                     16         17         18         19         20
                    1.7204     1.7204     1.2381     0.2905     0.0294
                     A          A          A          A          A   
    1  AS 1  S    0.000000   0.000000  -0.000000   0.001257  -0.000000
    2  AS 1  S   -0.000000  -0.000000  -0.000000   0.009555  -0.000000
    3  AS 1  S   -0.000000   0.000000  -0.000000   0.063200  -0.000000
    4  AS 1  S   -0.000000   0.000000  -0.000000   0.491281   0.000000
    5  AS 1  S   -0.000000   0.000000  -0.000000   0.249910   0.000000
    6  AS 1  S   -0.000000  -0.000000  -0.000000   0.661272  -0.000000
    7  AS 1  X   -0.003043   0.002598  -0.000000  -0.000000  -0.000872
    8  AS 1  Y   -0.002598  -0.003043  -0.000000  -0.000000   0.014211
    9  AS 1  Z    0.000000   0.000000  -0.000249  -0.000000  -0.000000
   10  AS 1  X   -0.040525   0.034606  -0.000000   0.000000  -0.011778
   11  AS 1  Y   -0.034606  -0.040525  -0.000000   0.000000   0.191868
   12  AS 1  Z    0.000000   0.000000  -0.001189  -0.000000  -0.000000
   13  AS 1  X    0.276946  -0.236490  -0.000000   0.000000  -0.060065
   14  AS 1  Y    0.236490   0.276946  -0.000000   0.000000   0.978459
   15  AS 1  Z    0.000000   0.000000   0.613185  -0.000000  -0.000000
   16  AS 1  X    0.127068  -0.108506  -0.000000   0.000000  -0.016169
   17  AS 1  Y    0.108506   0.127068  -0.000000   0.000000   0.263395
   18  AS 1  Z    0.000000   0.000000   0.226752  -0.000000  -0.000000
   19  AS 1  X    0.050136  -0.042812  -0.000000  -0.000000  -0.012960
   20  AS 1  Y    0.042812   0.050136  -0.000000  -0.000000   0.211124
   21  AS 1  Z    0.000000   0.000000   0.294902  -0.000000  -0.000000
   22  AS 1 XX   -0.040799   0.034840  -0.000000   0.057921  -0.006385
   23  AS 1 YY    0.040799  -0.034840  -0.000000   0.057921   0.006385
   24  AS 1 ZZ   -0.000000   0.000000  -0.000000  -0.115842   0.000000
   25  AS 1 XY    0.040229   0.047111  -0.000000  -0.000000  -0.120101
   26  AS 1 XZ    0.000000   0.000000   0.000000  -0.000000  -0.000000
   27  AS 1 YZ    0.000000   0.000000  -0.000000  -0.000000  -0.000000
   28  AS 1 XX    0.021541  -0.018394  -0.000000  -0.047925   0.003711
   29  AS 1 YY   -0.021541   0.018394  -0.000000  -0.047925  -0.003711
   30  AS 1 ZZ    0.000000  -0.000000  -0.000000   0.095850  -0.000000
   31  AS 1 XY   -0.021240  -0.024873  -0.000000  -0.000000   0.069802
   32  AS 1 XZ    0.000000   0.000000   0.000000  -0.000000  -0.000000
   33  AS 1 YZ    0.000000   0.000000  -0.000000  -0.000000  -0.000000
   34  AS 1 XX    0.016133  -0.013777  -0.000000  -0.092532  -0.002539
   35  AS 1 YY   -0.016133   0.013777  -0.000000  -0.092532   0.002539
   36  AS 1 ZZ    0.000000  -0.000000  -0.000000   0.185064   0.000000
   37  AS 1 XY   -0.015908  -0.018629  -0.000000  -0.000000  -0.047761
   38  AS 1 XZ    0.000000   0.000000  -0.000000  -0.000000  -0.000000
   39  AS 1 YZ    0.000000   0.000000  -0.000000  -0.000000  -0.000000
   40  AS 1 XXX   0.005949  -0.005080  -0.000000  -0.044034   0.000383
   41  AS 1 YYY   0.005080   0.005949  -0.000000  -0.000000  -0.006239
   42  AS 1 ZZZ   0.000000   0.000000  -0.014266  -0.000000  -0.000000
   43  AS 1 XXY   0.002272   0.002660  -0.000000  -0.000000  -0.002790
   44  AS 1 XXZ   0.000000   0.000000   0.009570  -0.000000  -0.000000
   45  AS 1 YYX   0.002660  -0.002272  -0.000000   0.059078   0.000171
   46  AS 1 YYZ   0.000000   0.000000   0.009570  -0.000000  -0.000000
   47  AS 1 ZZX  -0.010641   0.009087  -0.000000  -0.000000  -0.000685
   48  AS 1 ZZY  -0.009087  -0.010641  -0.000000  -0.000000   0.011161
   49  AS 1 XYZ   0.000000   0.000000  -0.000000  -0.000000  -0.000000
   50  H  2  S    0.029580   0.159682  -0.000000  -0.139356  -0.238664
   51  H  2  S    0.051838   0.279836  -0.000000  -0.325774  -0.684247
   52  H  2  S    0.014760   0.079677  -0.000000  -0.302555  -0.062426
   53  H  2  X    0.002703   0.005331  -0.000000   0.000585  -0.002076
   54  H  2  Y   -0.000852  -0.009943  -0.000000  -0.001013   0.009987
   55  H  2  Z    0.000000   0.000000   0.004526  -0.000000  -0.000000
   56  H  2  X    0.007333   0.012487  -0.000000  -0.000320  -0.045092
   57  H  2  Y   -0.001493  -0.023705  -0.000000   0.000555   0.112115
   58  H  2  Z    0.000000   0.000000   0.023141  -0.000000  -0.000000
   59  H  2 XX    0.001238  -0.000774  -0.000000  -0.000468   0.002559
   60  H  2 YY   -0.000832   0.002966  -0.000000  -0.000020  -0.009680
   61  H  2 ZZ   -0.000406  -0.002192  -0.000000   0.000488   0.007121
   62  H  2 XY   -0.001492  -0.003080  -0.000000  -0.000448   0.006760
   63  H  2 XZ    0.000000   0.000000   0.001328  -0.000000  -0.000000
   64  H  2 YZ    0.000000   0.000000  -0.002301  -0.000000  -0.000000
   65  H  3  S   -0.153078  -0.054224  -0.000000  -0.139356   0.222326
   66  H  3  S   -0.268264  -0.095025  -0.000000  -0.325774   0.637404
   67  H  3  S   -0.076382  -0.027056  -0.000000  -0.302555   0.058152
   68  H  3  X   -0.004842  -0.003504  -0.000000   0.000585   0.001085
   69  H  3  Y   -0.009687  -0.002398  -0.000000   0.001013   0.009793
   70  H  3  Z    0.000000   0.000000   0.004526  -0.000000  -0.000000
   71  H  3  X   -0.011184  -0.009198  -0.000000  -0.000320   0.037492
   72  H  3  Y   -0.023178  -0.005187  -0.000000  -0.000555   0.107045
   73  H  3  Z    0.000000   0.000000   0.023141  -0.000000  -0.000000
   74  H  3 XX    0.000958  -0.001102  -0.000000  -0.000468  -0.003014
   75  H  3 YY   -0.003059   0.000358  -0.000000  -0.000020   0.009647
   76  H  3 ZZ    0.002101   0.000744  -0.000000   0.000488  -0.006634
   77  H  3 XY   -0.002808  -0.001955  -0.000000   0.000448   0.005877
   78  H  3 XZ    0.000000   0.000000   0.001328  -0.000000  -0.000000
   79  H  3 YZ    0.000000   0.000000   0.002301  -0.000000  -0.000000
   80  H  4  S    0.123498  -0.105458  -0.000000  -0.139356   0.016339
   81  H  4  S    0.216426  -0.184811  -0.000000  -0.325774   0.046842
   82  H  4  S    0.061622  -0.052621  -0.000000  -0.302555   0.004274
   83  H  4  X   -0.008721   0.007447  -0.000000  -0.001170  -0.000663
   84  H  4  Y    0.001265   0.001481  -0.000000  -0.000000   0.007153
   85  H  4  Z    0.000000   0.000000   0.004526  -0.000000  -0.000000
   86  H  4  X   -0.020706   0.017681  -0.000000   0.000641  -0.008190
   87  H  4  Y    0.003701   0.004334  -0.000000  -0.000000   0.038060
   88  H  4  Z    0.000000   0.000000   0.023141  -0.000000  -0.000000
   89  H  4 XX    0.003357  -0.002866  -0.000000   0.000204   0.000800
   90  H  4 YY   -0.001662   0.001419  -0.000000  -0.000692  -0.000313
   91  H  4 ZZ   -0.001695   0.001447  -0.000000   0.000488  -0.000488
   92  H  4 XY   -0.001176  -0.001377  -0.000000  -0.000000  -0.006132
   93  H  4 XZ    0.000000   0.000000  -0.002657  -0.000000  -0.000000
   94  H  4 YZ    0.000000   0.000000  -0.000000  -0.000000  -0.000000

                     21
                    0.0294
                     A   
    1  AS 1  S   -0.000000
    2  AS 1  S   -0.000000
    3  AS 1  S   -0.000000
    4  AS 1  S   -0.000000
    5  AS 1  S    0.000000
    6  AS 1  S    0.000000
    7  AS 1  X    0.014211
    8  AS 1  Y    0.000872
    9  AS 1  Z   -0.000000
   10  AS 1  X    0.191868
   11  AS 1  Y    0.011778
   12  AS 1  Z   -0.000000
   13  AS 1  X    0.978459
   14  AS 1  Y    0.060065
   15  AS 1  Z   -0.000000
   16  AS 1  X    0.263395
   17  AS 1  Y    0.016169
   18  AS 1  Z   -0.000000
   19  AS 1  X    0.211124
   20  AS 1  Y    0.012960
   21  AS 1  Z   -0.000000
   22  AS 1 XX    0.104011
   23  AS 1 YY   -0.104011
   24  AS 1 ZZ    0.000000
   25  AS 1 XY   -0.007373
   26  AS 1 XZ   -0.000000
   27  AS 1 YZ   -0.000000
   28  AS 1 XX   -0.060450
   29  AS 1 YY    0.060450
   30  AS 1 ZZ   -0.000000
   31  AS 1 XY    0.004285
   32  AS 1 XZ   -0.000000
   33  AS 1 YZ   -0.000000
   34  AS 1 XX    0.041362
   35  AS 1 YY   -0.041362
   36  AS 1 ZZ    0.000000
   37  AS 1 XY   -0.002932
   38  AS 1 XZ   -0.000000
   39  AS 1 YZ   -0.000000
   40  AS 1 XXX  -0.006239
   41  AS 1 YYY  -0.000383
   42  AS 1 ZZZ  -0.000000
   43  AS 1 XXY  -0.000171
   44  AS 1 XXZ  -0.000000
   45  AS 1 YYX  -0.002790
   46  AS 1 YYZ  -0.000000
   47  AS 1 ZZX   0.011161
   48  AS 1 ZZY   0.000685
   49  AS 1 XYZ  -0.000000
   50  H  2  S    0.118927
   51  H  2  S    0.340961
   52  H  2  S    0.031107
   53  H  2  X    0.007968
   54  H  2  Y   -0.000973
   55  H  2  Z   -0.000000
   56  H  2  X    0.059365
   57  H  2  Y   -0.034565
   58  H  2  Z   -0.000000
   59  H  2 XX    0.003873
   60  H  2 YY   -0.000324
   61  H  2 ZZ   -0.003548
   62  H  2 XY   -0.006800
   63  H  2 XZ   -0.000000
   64  H  2 YZ   -0.000000
   65  H  3  S    0.147226
   66  H  3  S    0.422094
   67  H  3  S    0.038509
   68  H  3  X    0.008162
   69  H  3  Y    0.002188
   70  H  3  Z   -0.000000
   71  H  3  X    0.064435
   72  H  3  Y    0.048019
   73  H  3  Z   -0.000000
   74  H  3 XX    0.003531
   75  H  3 YY    0.000862
   76  H  3 ZZ   -0.004393
   77  H  3 XY    0.007576
   78  H  3 XZ   -0.000000
   79  H  3 YZ   -0.000000
   80  H  4  S   -0.266153
   81  H  4  S   -0.763056
   82  H  4  S   -0.069616
   83  H  4  X    0.010803
   84  H  4  Y    0.000439
   85  H  4  Z   -0.000000
   86  H  4  X    0.133420
   87  H  4  Y    0.002336
   88  H  4  Z   -0.000000
   89  H  4 XX   -0.013037
   90  H  4 YY    0.005095
   91  H  4 ZZ    0.007941
   92  H  4 XY   -0.000376
   93  H  4 XZ   -0.000000
   94  H  4 YZ   -0.000000

          ------------------------
          MCSCF OPTIMIZED ORBITALS
          ------------------------

                      1          2          3          4          5
                 -432.8954   -56.6209   -50.4654   -50.4653   -50.4653
                     A          A          A          A          A   
    1  AS 1  S    0.999999   0.000003   0.000000  -0.000000  -0.000000
    2  AS 1  S    0.000001   1.000103   0.000000  -0.000000   0.000000
    3  AS 1  S   -0.000004   0.000135   0.000000  -0.000000  -0.000000
    4  AS 1  S   -0.000005   0.000143   0.000000  -0.000000  -0.000000
    5  AS 1  S    0.000016  -0.000426   0.000000   0.000000  -0.000000
    6  AS 1  S    0.000005  -0.000140   0.000000   0.000000  -0.000000
    7  AS 1  X   -0.000000   0.000000   0.000000   0.975151  -0.221655
    8  AS 1  Y   -0.000000  -0.000000   0.000000   0.221655   0.975151
    9  AS 1  Z   -0.000000  -0.000000   1.000026  -0.000000  -0.000000
   10  AS 1  X   -0.000000  -0.000000   0.000000  -0.000003   0.000001
   11  AS 1  Y   -0.000000  -0.000000   0.000000  -0.000001  -0.000003
   12  AS 1  Z   -0.000000  -0.000000   0.000001  -0.000000  -0.000000
   13  AS 1  X   -0.000000  -0.000000   0.000000  -0.000086   0.000020
   14  AS 1  Y   -0.000000  -0.000000   0.000000  -0.000020  -0.000086
   15  AS 1  Z   -0.000000  -0.000000  -0.000002  -0.000000  -0.000000
   16  AS 1  X    0.000000   0.000000   0.000000  -0.000488   0.000111
   17  AS 1  Y   -0.000000  -0.000000   0.000000  -0.000111  -0.000488
   18  AS 1  Z   -0.000000  -0.000000  -0.000447  -0.000000  -0.000000
   19  AS 1  X    0.000000  -0.000000   0.000000  -0.000088   0.000020
   20  AS 1  Y   -0.000000  -0.000000   0.000000  -0.000020  -0.000088
   21  AS 1  Z   -0.000000  -0.000000  -0.000069  -0.000000  -0.000000
   22  AS 1 XX    0.000000  -0.000001   0.000000   0.000002  -0.000000
   23  AS 1 YY    0.000000  -0.000001   0.000000  -0.000002   0.000000
   24  AS 1 ZZ   -0.000000   0.000001   0.000000  -0.000000  -0.000000
   25  AS 1 XY   -0.000000  -0.000000   0.000000  -0.000000  -0.000002
   26  AS 1 XZ   -0.000000  -0.000000   0.000000  -0.000000  -0.000000
   27  AS 1 YZ   -0.000000  -0.000000   0.000000  -0.000000  -0.000000
   28  AS 1 XX    0.000000  -0.000002   0.000000  -0.000054   0.000012
   29  AS 1 YY    0.000000  -0.000002   0.000000   0.000054  -0.000012
   30  AS 1 ZZ   -0.000000   0.000004   0.000000   0.000000  -0.000000
   31  AS 1 XY   -0.000000  -0.000000   0.000000   0.000014   0.000063
   32  AS 1 XZ   -0.000000  -0.000000   0.000000  -0.000000  -0.000000
   33  AS 1 YZ   -0.000000  -0.000000   0.000000  -0.000000  -0.000000
   34  AS 1 XX    0.000000  -0.000002   0.000000  -0.000015   0.000004
   35  AS 1 YY    0.000000  -0.000002   0.000000   0.000015  -0.000004
   36  AS 1 ZZ   -0.000000   0.000004   0.000000  -0.000000   0.000000
   37  AS 1 XY   -0.000000  -0.000000   0.000000   0.000004   0.000018
   38  AS 1 XZ   -0.000000  -0.000000   0.000000  -0.000000  -0.000000
   39  AS 1 YZ   -0.000000  -0.000000   0.000000  -0.000000  -0.000000
   40  AS 1 XXX   0.000000  -0.000006   0.000000  -0.000013   0.000003
   41  AS 1 YYY  -0.000000  -0.000000   0.000000  -0.000003  -0.000013
   42  AS 1 ZZZ  -0.000000  -0.000000  -0.000000  -0.000000  -0.000000
   43  AS 1 XXY  -0.000000  -0.000000   0.000000  -0.000001  -0.000006
   44  AS 1 XXZ  -0.000000  -0.000000   0.000000  -0.000000  -0.000000
   45  AS 1 YYX  -0.000000   0.000008   0.000000  -0.000006   0.000001
   46  AS 1 YYZ  -0.000000  -0.000000   0.000000  -0.000000  -0.000000
   47  AS 1 ZZX   0.000000  -0.000000   0.000000   0.000023  -0.000005
   48  AS 1 ZZY  -0.000000  -0.000000   0.000000   0.000005   0.000023
   49  AS 1 XYZ  -0.000000  -0.000000   0.000000  -0.000000  -0.000000
   50  H  2  S   -0.000000   0.000006   0.000000   0.000004  -0.000014
   51  H  2  S   -0.000000   0.000011   0.000000  -0.000021   0.000067
   52  H  2  S   -0.000001   0.000029   0.000000  -0.000014   0.000045
   53  H  2  X   -0.000000   0.000002   0.000000  -0.000003   0.000008
   54  H  2  Y    0.000000  -0.000003   0.000000   0.000004  -0.000014
   55  H  2  Z   -0.000000  -0.000000   0.000001  -0.000000  -0.000000
   56  H  2  X   -0.000000   0.000004   0.000000  -0.000012   0.000034
   57  H  2  Y    0.000000  -0.000008   0.000000   0.000018  -0.000060
   58  H  2  Z   -0.000000  -0.000000  -0.000005  -0.000000  -0.000000
   59  H  2 XX    0.000000  -0.000001   0.000000   0.000004  -0.000003
   60  H  2 YY   -0.000000   0.000005   0.000000  -0.000011   0.000024
   61  H  2 ZZ    0.000000  -0.000004   0.000000   0.000006  -0.000021
   62  H  2 XY    0.000000  -0.000006   0.000000   0.000007  -0.000030
   63  H  2 XZ   -0.000000  -0.000000   0.000003  -0.000000  -0.000000
   64  H  2 YZ   -0.000000  -0.000000  -0.000005  -0.000000  -0.000000
   65  H  3  S   -0.000000   0.000006   0.000000   0.000010   0.000010
   66  H  3  S   -0.000000   0.000011   0.000000  -0.000048  -0.000051
   67  H  3  S   -0.000001   0.000029   0.000000  -0.000032  -0.000035
   68  H  3  X   -0.000000   0.000002   0.000000  -0.000006  -0.000006
   69  H  3  Y   -0.000000   0.000003   0.000000  -0.000010  -0.000011
   70  H  3  Z   -0.000000  -0.000000   0.000001  -0.000000  -0.000000
   71  H  3  X   -0.000000   0.000004   0.000000  -0.000025  -0.000025
   72  H  3  Y   -0.000000   0.000008   0.000000  -0.000042  -0.000046
   73  H  3  Z   -0.000000  -0.000000  -0.000005  -0.000000  -0.000000
   74  H  3 XX    0.000000  -0.000001   0.000000   0.000005   0.000001
   75  H  3 YY   -0.000000   0.000005   0.000000  -0.000020  -0.000017
   76  H  3 ZZ    0.000000  -0.000004   0.000000   0.000015   0.000016
   77  H  3 XY   -0.000000   0.000006   0.000000  -0.000020  -0.000024
   78  H  3 XZ   -0.000000  -0.000000   0.000003  -0.000000  -0.000000
   79  H  3 YZ   -0.000000  -0.000000   0.000005  -0.000000  -0.000000
   80  H  4  S   -0.000000   0.000006   0.000000  -0.000014   0.000003
   81  H  4  S   -0.000000   0.000011   0.000000   0.000068  -0.000016
   82  H  4  S   -0.000001   0.000029   0.000000   0.000046  -0.000010
   83  H  4  X    0.000000  -0.000004   0.000000  -0.000016   0.000004
   84  H  4  Y   -0.000000  -0.000000   0.000000  -0.000000  -0.000001
   85  H  4  Z   -0.000000  -0.000000   0.000001  -0.000000  -0.000000
   86  H  4  X    0.000000  -0.000009   0.000000  -0.000070   0.000016
   87  H  4  Y   -0.000000  -0.000000   0.000000  -0.000000  -0.000002
   88  H  4  Z   -0.000000  -0.000000  -0.000005  -0.000000  -0.000000
   89  H  4 XX   -0.000000   0.000008   0.000000   0.000041  -0.000009
   90  H  4 YY    0.000000  -0.000004   0.000000  -0.000019   0.000004
   91  H  4 ZZ    0.000000  -0.000004   0.000000  -0.000021   0.000005
   92  H  4 XY   -0.000000  -0.000000   0.000000  -0.000001  -0.000004
   93  H  4 XZ   -0.000000  -0.000000  -0.000006  -0.000000  -0.000000
   94  H  4 YZ   -0.000000  -0.000000   0.000000  -0.000000  -0.000000

                      6          7          8          9         10
                   -8.3450    -6.1998    -6.1998    -6.1964    -2.4338
                     A          A          A          A          A   
    1  AS 1  S   -0.000085   0.000000  -0.000000  -0.000000   0.000000
    2  AS 1  S   -0.000609   0.000000  -0.000000  -0.000000  -0.000000
    3  AS 1  S    0.975257   0.000000  -0.000000  -0.000000  -0.000000
    4  AS 1  S   -0.001924   0.000000  -0.000000  -0.000000  -0.000000
    5  AS 1  S    0.036270  -0.000000   0.000000  -0.000000   0.000000
    6  AS 1  S    0.004132   0.000000  -0.000000  -0.000000   0.000000
    7  AS 1  X    0.000000   0.000068  -0.000080  -0.000000  -0.000024
    8  AS 1  Y    0.000000  -0.000080  -0.000068  -0.000000  -0.000215
    9  AS 1  Z    0.000000   0.000000  -0.000000   0.000031   0.000000
   10  AS 1  X    0.000000  -0.630582   0.742838  -0.000000  -0.000119
   11  AS 1  Y   -0.000000   0.742838   0.630582  -0.000000  -0.001048
   12  AS 1  Z    0.000000   0.000000  -0.000000   0.975679   0.000000
   13  AS 1  X   -0.000000   0.000647  -0.000762  -0.000000  -0.000527
   14  AS 1  Y   -0.000000  -0.000762  -0.000647  -0.000000  -0.004634
   15  AS 1  Z    0.000000   0.000000  -0.000000   0.000431   0.000000
   16  AS 1  X    0.000000  -0.030931   0.036437  -0.000000   0.000214
   17  AS 1  Y    0.000000   0.036437   0.030931  -0.000000   0.001878
   18  AS 1  Z    0.000000   0.000000  -0.000000   0.046644   0.000000
   19  AS 1  X   -0.000000  -0.001338   0.001576  -0.000000   0.000290
   20  AS 1  Y    0.000000   0.001576   0.001338  -0.000000   0.002545
   21  AS 1  Z    0.000000   0.000000  -0.000000   0.001652   0.000000
   22  AS 1 XX    0.000324  -0.000394   0.000464  -0.000000  -0.094686
   23  AS 1 YY    0.000324   0.000394  -0.000464  -0.000000   0.094686
   24  AS 1 ZZ   -0.000647  -0.000000   0.000000  -0.000000   0.000000
   25  AS 1 XY    0.000000  -0.000535  -0.000454  -0.000000   0.960490
   26  AS 1 XZ    0.000000   0.000000  -0.000000   0.000000   0.000000
   27  AS 1 YZ    0.000000   0.000000  -0.000000  -0.000000   0.000000
   28  AS 1 XX    0.000051   0.000214  -0.000252  -0.000000  -0.008290
   29  AS 1 YY    0.000051  -0.000214   0.000252  -0.000000   0.008290
   30  AS 1 ZZ   -0.000101  -0.000000   0.000000  -0.000000   0.000000
   31  AS 1 XY    0.000000   0.000291   0.000247  -0.000000   0.084096
   32  AS 1 XZ    0.000000   0.000000  -0.000000  -0.000000   0.000000
   33  AS 1 YZ    0.000000   0.000000  -0.000000  -0.000000   0.000000
   34  AS 1 XX   -0.000015   0.000139  -0.000163  -0.000000  -0.000051
   35  AS 1 YY   -0.000015  -0.000139   0.000163  -0.000000   0.000051
   36  AS 1 ZZ    0.000031  -0.000000   0.000000  -0.000000   0.000000
   37  AS 1 XY    0.000000   0.000189   0.000160  -0.000000   0.000518
   38  AS 1 XZ    0.000000   0.000000  -0.000000  -0.000000   0.000000
   39  AS 1 YZ    0.000000   0.000000  -0.000000  -0.000000   0.000000
   40  AS 1 XXX   0.000049  -0.000035   0.000041  -0.000000  -0.000050
   41  AS 1 YYY   0.000000   0.000041   0.000035  -0.000000  -0.000438
   42  AS 1 ZZZ   0.000000   0.000000  -0.000000  -0.000215   0.000000
   43  AS 1 XXY   0.000000   0.000018   0.000015  -0.000000  -0.000196
   44  AS 1 XXZ   0.000000   0.000000  -0.000000   0.000144   0.000000
   45  AS 1 YYX  -0.000066  -0.000015   0.000018  -0.000000  -0.000022
   46  AS 1 YYZ   0.000000   0.000000  -0.000000   0.000144   0.000000
   47  AS 1 ZZX   0.000000   0.000062  -0.000073  -0.000000   0.000089
   48  AS 1 ZZY   0.000000  -0.000073  -0.000062  -0.000000   0.000783
   49  AS 1 XYZ   0.000000   0.000000  -0.000000  -0.000000   0.000000
   50  H  2  S    0.000002   0.000422   0.000077  -0.000000  -0.004450
   51  H  2  S    0.000333   0.001960   0.000357  -0.000000  -0.002143
   52  H  2  S   -0.000677  -0.000685  -0.000125  -0.000000  -0.001381
   53  H  2  X   -0.000004   0.000014   0.000024  -0.000000  -0.000418
   54  H  2  Y    0.000006  -0.000034   0.000006  -0.000000   0.001259
   55  H  2  Z    0.000000   0.000000  -0.000000   0.000011   0.000000
   56  H  2  X    0.000006   0.000230   0.000136  -0.000000   0.000576
   57  H  2  Y   -0.000010  -0.000437  -0.000025  -0.000000   0.000208
   58  H  2  Z    0.000000   0.000000  -0.000000   0.000124   0.000000
   59  H  2 XX   -0.000004  -0.000039  -0.000034  -0.000000   0.000265
   60  H  2 YY    0.000025   0.000130   0.000051  -0.000000  -0.000653
   61  H  2 ZZ   -0.000021  -0.000091  -0.000017  -0.000000   0.000388
   62  H  2 XY   -0.000029  -0.000182  -0.000015  -0.000000   0.000546
   63  H  2 XZ    0.000000   0.000000  -0.000000  -0.000018   0.000000
   64  H  2 YZ    0.000000   0.000000  -0.000000   0.000030   0.000000
   65  H  3  S    0.000002  -0.000145  -0.000404  -0.000000   0.005076
   66  H  3  S    0.000333  -0.000671  -0.001876  -0.000000   0.002445
   67  H  3  S   -0.000677   0.000234   0.000655  -0.000000   0.001575
   68  H  3  X   -0.000004  -0.000026  -0.000010  -0.000000   0.000586
   69  H  3  Y   -0.000006   0.000001  -0.000034  -0.000000   0.001374
   70  H  3  Z    0.000000   0.000000  -0.000000   0.000011   0.000000
   71  H  3  X    0.000006  -0.000172  -0.000205  -0.000000  -0.000412
   72  H  3  Y    0.000010  -0.000096  -0.000427  -0.000000   0.000096
   73  H  3  Z    0.000000   0.000000  -0.000000   0.000124   0.000000
   74  H  3 XX   -0.000004   0.000040   0.000033  -0.000000  -0.000237
   75  H  3 YY    0.000025  -0.000071  -0.000120  -0.000000   0.000679
   76  H  3 ZZ   -0.000021   0.000031   0.000087  -0.000000  -0.000442
   77  H  3 XY    0.000029  -0.000044  -0.000177  -0.000000   0.000666
   78  H  3 XZ    0.000000   0.000000  -0.000000  -0.000018   0.000000
   79  H  3 YZ    0.000000   0.000000  -0.000000  -0.000030   0.000000
   80  H  4  S    0.000002  -0.000278   0.000327  -0.000000  -0.000626
   81  H  4  S    0.000333  -0.001289   0.001518  -0.000000  -0.000302
   82  H  4  S   -0.000677   0.000450  -0.000531  -0.000000  -0.000194
   83  H  4  X    0.000007   0.000024  -0.000028  -0.000000   0.000183
   84  H  4  Y    0.000000   0.000019   0.000016  -0.000000   0.000447
   85  H  4  Z    0.000000   0.000000  -0.000000   0.000011   0.000000
   86  H  4  X   -0.000011   0.000324  -0.000382  -0.000000  -0.000015
   87  H  4  Y    0.000000   0.000082   0.000070  -0.000000   0.001008
   88  H  4  Z    0.000000   0.000000  -0.000000   0.000124   0.000000
   89  H  4 XX    0.000040  -0.000147   0.000174  -0.000000  -0.000117
   90  H  4 YY   -0.000018   0.000088  -0.000103  -0.000000   0.000063
   91  H  4 ZZ   -0.000021   0.000060  -0.000070  -0.000000   0.000055
   92  H  4 XY    0.000000   0.000027   0.000023  -0.000000  -0.000310
   93  H  4 XZ    0.000000   0.000000  -0.000000   0.000035   0.000000
   94  H  4 YZ    0.000000   0.000000  -0.000000  -0.000000   0.000000

                     11         12         13         14         15
                   -2.4338    -2.4296    -2.4287    -2.4287     0.0000
                     A          A          A          A          A   
    1  AS 1  S    0.000000  -0.000096   0.000000   0.000000   0.000441
    2  AS 1  S    0.000000  -0.000644   0.000000   0.000000   0.002647
    3  AS 1  S    0.000000  -0.001509   0.000000   0.000000   0.004247
    4  AS 1  S    0.000000  -0.003271   0.000000   0.000000   0.555910
    5  AS 1  S    0.000000   0.000596   0.000000   0.000000   0.234978
    6  AS 1  S   -0.000000   0.003473   0.000000   0.000000   0.129611
    7  AS 1  X    0.000215  -0.000000   0.000000   0.000000   0.000000
    8  AS 1  Y   -0.000024  -0.000000   0.000000   0.000000  -0.000000
    9  AS 1  Z    0.000000  -0.000000   0.000000   0.000000   0.000000
[...]
      823   -0.022476    0.022476  20+2002
      843    0.021836    0.021836  +202+0-
       44    0.021702   -0.021702  -2+20+0
       89    0.021702    0.021702  -+2200+

 State #    4  Energy =   -2235.692920359

      Det      Coef        Coefp    Occupancy (Ignoring core)
      ---      ----        ----    --------- --------- -----
       71    0.950513   -0.950513  2+22000
      177   -0.120218    0.120218  2+20200
        6    0.117780   -0.117780  22200+0
       74   -0.101964    0.101964  2022+00
       38    0.101953   -0.101953  2202+00
       78   -0.092411    0.092411  20220+0
      248   -0.069341    0.069341  2+02200
      109    0.056040   -0.056040  +-22+00
      822   -0.052888    0.052888  2+02002
      113    0.050909   -0.050909  +-220+0
      122   -0.050908   -0.050908  +2-200+
       42   -0.043714    0.043714  22020+0
       75   -0.039713   -0.039713  -+22+00
      810    0.039574    0.039574  -++2+0-
       53   -0.036471   -0.036471  2-+200+
      332    0.032283   -0.032283  ++-2-0+
      841    0.029207   -0.029207  +2+200-
      526   -0.029205   -0.029205  ++220-0
      878   -0.028972   -0.028972  ++-2+0-
      458    0.027420   -0.027420  2+02+-0
      809   -0.027419    0.027419  20+2+0-
      323   -0.025875    0.025875  +022-+0
      320   -0.025715   -0.025715  0+22200
      264   -0.025635    0.025635  -++2-0+
      534   -0.025476   -0.025476  0+22020
      894   -0.025396   -0.025396  0+22002
      263    0.024424    0.024424  20+2-0+
      252   -0.024424   -0.024424  2+02-+0
      806    0.024257    0.024257  2++200-
      462   -0.022476    0.022476  2+02020
      529    0.021835    0.021835  +022+-0
       79   -0.021703   -0.021703  -+220+0
       54    0.021701   -0.021701  -2+200+

 ---------------------------------------
      - DIABATIC STATES IN CMO -        
 ---------------------------------------

 State #    1  Energy =   -2235.921753443

      Det      Coef        Coefp    Occupancy (Ignoring core)
      ---      ----        ----    --------- --------- -----
        1   -0.976693    0.976693  222+000
      107    0.073563   -0.073563  +22-+00
      143    0.060804    0.060804  220+200
      179    0.060804    0.060804  202+200
      717    0.054192    0.054192  220+002
      393    0.054192    0.054192  202+020
      211   -0.038244   -0.038244  +22+-00
        5   -0.035319   -0.035319  -22++00
       51    0.031206   -0.031206  22+-00+
       76    0.031206    0.031206  2+2-0+0
      227    0.030345    0.030345  +2-+-0+
      218    0.030345   -0.030345  +-2+-+0
      215    0.029798    0.029798  022+200
      353   -0.029405   -0.029405  220++-0
      738    0.029405    0.029405  2+-++0-
      704   -0.029405    0.029405  2-+++0-
      389    0.029405    0.029405  202++-0
      147    0.027476   -0.027476  220+-+0
      192   -0.027476    0.027476  2+-+-0+
      158    0.027476    0.027476  2-++-0+
      183   -0.027476    0.027476  202+-+0
      357    0.026871    0.026871  220+020
      753    0.026871    0.026871  202+002
      705    0.026484    0.026484  -2+++0-
      390    0.026484   -0.026484  -+2++-0
        8   -0.024383    0.024383  2-2+0+0
       17   -0.024383   -0.024383  22-+00+
      773   -0.024009    0.024009  +2-++0-
      424   -0.024009   -0.024009  +-2++-0
      159   -0.022636    0.022636  -2++-0+
      184   -0.022636   -0.022636  -+2+-+0
      742   -0.021674   -0.021674  2+-+0+-
      368   -0.021674   -0.021674  2-++0-+
      789    0.021558    0.021558  022+002
      429    0.021558    0.021558  022+020

 State #    2  Energy =   -2235.728749709

      Det      Coef        Coefp    Occupancy (Ignoring core)
      ---      ----        ----    --------- --------- -----
        2   -0.951845    0.951845  2220+00
      106   -0.172547   -0.172547  +222000
      156   -0.075369    0.075369  22+0-0+
      181   -0.075364   -0.075364  2+20-+0
      702    0.072458    0.072458  22+0+0-
      387    0.072455   -0.072455  2+20+-0
      212    0.064060    0.064060  +220200
      110    0.057394   -0.057394  0222+00
      396    0.056295    0.056295  2020+20
      720    0.056293    0.056293  2200+02
      751   -0.035243    0.035243  2+20002
      706   -0.035243   -0.035243  22+00+-
      366    0.035242   -0.035242  22+00-+
      391    0.035239   -0.035239  2+20020
      356   -0.034955   -0.034955  22+0020
      716    0.034955    0.034955  22+0002
      401    0.034954    0.034954  2+200-+
      741   -0.034954    0.034954  2+200+-
       38    0.031294   -0.031294  2202+00
       74    0.031258   -0.031258  2022+00
      756    0.030246    0.030246  2020+02
      360    0.030245    0.030245  2200+20
      146   -0.029385    0.029385  22+0-+0
      191    0.029383    0.029383  2+20-0+
      352    0.028250    0.028250  22+0+-0
      737   -0.028248    0.028248  2+20+0-
      186   -0.025609    0.025609  20202+0
      161    0.025609    0.025609  2-+020+
      150    0.025608   -0.025608  22002+0
      195   -0.025607    0.025607  2+-020+
      371   -0.021384   -0.021384  2-+0+-+
      745   -0.021382   -0.021382  2+-0++-
      230    0.020541    0.020541  +2-020+
      221    0.020540   -0.020540  +-202+0

 State #    3  Energy =   -2235.692920358

      Det      Coef        Coefp    Occupancy (Ignoring core)
      ---      ----        ----    --------- --------- -----
       36    0.950507    0.950507  22+2000
      142   -0.120218   -0.120218  22+0200
       16    0.109898   -0.109898  222000+
       39    0.102011    0.102011  2-+2+00
       73   -0.102011    0.102011  2+-2+00
       52   -0.086156    0.086156  220200+
      249   -0.069340    0.069340  20+2200
      108    0.056040    0.056040  +2-2+00
      463   -0.048914    0.048914  20+2020
      123   -0.046688    0.046688  +-2200+
      112   -0.046688   -0.046688  +2-20+0
        6    0.042364   -0.042364  22200+0
       88   -0.040859    0.040859  202200+
       40   -0.039713    0.039713  -2+2+00
      460   -0.036926   -0.036926  -++2+-0
       77    0.033965   -0.033965  2+-20+0
       42   -0.033411    0.033411  22020+0
      288   -0.030077   -0.030077  +-+2-+0
      494    0.026998   -0.026998  +-+2+-0
      491    0.026785   -0.026785  +2+20-0
      876    0.026785    0.026785  ++2200-
      823   -0.026449    0.026449  20+2002
      285   -0.025715    0.025715  02+2200
      859   -0.025465    0.025465  02+2002
      499   -0.025406    0.025406  02+2020
      808   -0.025147    0.025147  2+02+0-
      459   -0.025147    0.025147  20+2+-0
      297   -0.024100    0.024100  +202-0+
      254    0.023919   -0.023919  -++2-+0
      456   -0.022634   -0.022634  2++20-0
      253    0.022399    0.022399  20+2-+0
      262    0.022399    0.022399  2+02-0+
      122    0.020480    0.020480  +2-200+
      113   -0.020480    0.020480  +-220+0
      843    0.020339    0.020339  +202+0-

 State #    4  Energy =   -2235.692920359

      Det      Coef        Coefp    Occupancy (Ignoring core)
      ---      ----        ----    --------- --------- -----
       71    0.950507   -0.950507  2+22000
      177   -0.120218    0.120218  2+20200
        6    0.109898   -0.109898  22200+0
       74   -0.102017    0.102017  2022+00
       38    0.102006   -0.102006  2202+00
       78   -0.086159    0.086159  20220+0
      248   -0.069340    0.069340  2+02200
      109    0.056040   -0.056040  +-22+00
      822   -0.048914    0.048914  2+02002
      113    0.046689   -0.046689  +-220+0
      122   -0.046688   -0.046688  +2-200+
       16   -0.042364    0.042364  222000+
       42   -0.040856    0.040856  22020+0
       75   -0.039713   -0.039713  -+22+00
      810    0.036926    0.036926  -++2+0-
       53   -0.033963   -0.033963  2-+200+
       88    0.033412   -0.033412  202200+
      332    0.030078   -0.030078  ++-2-0+
      878   -0.026998   -0.026998  ++-2+0-
      841    0.026786   -0.026786  +2+200-
      526   -0.026784   -0.026784  ++220-0
      462   -0.026449    0.026449  2+02020
      320   -0.025715   -0.025715  0+22200
      534   -0.025465   -0.025465  0+22020
      894   -0.025406   -0.025406  0+22002
      458    0.025147   -0.025147  2+02+-0
      809   -0.025146    0.025146  20+2+0-
      323   -0.024099    0.024099  +022-+0
      264   -0.023919    0.023919  -++2-0+
      806    0.022634    0.022634  2++200-
      263    0.022399    0.022399  20+2-0+
      252   -0.022399   -0.022399  2+02-+0
      123   -0.020480    0.020480  +-2200+
      112   -0.020480   -0.020480  +2-20+0
      529    0.020339    0.020339  +022+-0

 ---------------------------------------
    -DIABATIC STATES IN PROTOTYPES-     
 ---------------------------------------

     STATE:    1
 Group Ref#    Coefficients
     1    1    0.999079
     2    2   -0.000000
     3    3   -0.000000
     4    4    0.000000

WEIGHT OF LISTED PROTOTYPES:   99.82%

     STATE:    2
 Group Ref#    Coefficients
     1    1    0.000000
     2    2    0.997603
     3    3   -0.000006
     4    4   -0.000104

WEIGHT OF LISTED PROTOTYPES:   99.52%

     STATE:    3
 Group Ref#    Coefficients
     1    1    0.000000
     2    2   -0.000006
     3    3    0.997758
     4    4    0.000000

WEIGHT OF LISTED PROTOTYPES:   99.55%

     STATE:    4
 Group Ref#    Coefficients
     1    1    0.000000
     2    2   -0.000104
     3    3    0.000000
     4    4    0.997758

WEIGHT OF LISTED PROTOTYPES:   99.55%

     DIRECT MAX. DIABATIZATION FINISHED    
 CPU     0: STEP CPU TIME=     0.83 TOTAL CPU TIME=        101.9 (      1.7 MIN)
 TOTAL WALL CLOCK TIME=        104.4 SECONDS, CPU UTILIZATION IS    97.56%

DIABATS FOR SPIN-ORBIT CALCULATION ARE READY

TRANSITION DIPOLES BETWEEN ADIABATS (in A.U.):

STATE PAIR      X         Y         Z
    1    1 -0.000000 -0.000000 -0.000000
    2    1  0.000000 -0.000000 -0.466969
    2    2 -0.000000 -0.000000 -0.000000
    3    1 -0.000000 -0.000000 -0.000000
    3    2 -0.016278  0.165597 -0.000000
    3    3  0.410090 -0.081407  0.000000
    4    1  0.000000  0.000000 -0.000000
    4    2 -0.165597 -0.016278 -0.000000
    4    3 -0.081407 -0.410090 -0.000000
    4    4 -0.410090  0.081407 -0.000000


TRANSITION DIPOLES BETWEEN DIABATS (in A.U.):

STATE PAIR      X         Y         Z
    1    1 -0.000000 -0.000000 -0.000000
    2    1 -0.000000  0.000000  0.466969
    2    2  0.000057  0.000004 -0.000000
    3    1  0.000000  0.000000 -0.000005
    3    2 -0.002726  0.166445 -0.000000
    3    3  0.417867 -0.013733  0.000000
    4    1  0.000000  0.000000 -0.000081
    4    2  0.166300  0.002739  0.000000
    4    3  0.013729  0.417838 -0.000000
    4    4 -0.417924  0.013729 -0.000000

TRANSITION DIPOLES BETWEEN DIRECT MAX. DIABATS (in A.U.):

STATE PAIR      X         Y         Z
    1    1 -0.000000 -0.000000 -0.000000
    2    1 -0.000000  0.000000  0.466969
    2    2  0.000057  0.000004 -0.000000
    3    1  0.000000  0.000000 -0.000005
    3    2 -0.002726  0.166445 -0.000000
    3    3  0.417867 -0.013733  0.000000
    4    1  0.000000  0.000000 -0.000081
    4    2  0.166300  0.002739  0.000000
    4    3  0.013729  0.417838 -0.000000
    4    4 -0.417924  0.013729 -0.000000
 No $TRANST Group Found.
 Quit without doing spin-orbit coupling
 ..... DONE WITH MP2 ENERGY .....
 CPU     0: STEP CPU TIME=     0.00 TOTAL CPU TIME=        101.9 (      1.7 MIN)
 TOTAL WALL CLOCK TIME=        104.4 SECONDS, CPU UTILIZATION IS    97.56%
            250000000  WORDS OF DYNAMIC MEMORY USED
 EXECUTION OF GAMESS TERMINATED NORMALLY Mon Dec  4 10:28:38 2023
 DDI: 14063448 bytes (13.4 MB / 1 MWords) used by master data server.

 ----------------------------------------
 CPU timing information for all processes
 ========================================
 0: 101.640 + 0.270 = 101.910
 1: 101.737 + 0.168 = 101.905
 ----------------------------------------
Note: The following floating-point exceptions are signalling: IEEE_DENORMAL
Note: The following floating-point exceptions are signalling: IEEE_DENORMAL
 ddikick.x: exited gracefully.
unset echo
----- accounting info -----
Files used on the master node io001 were:
-rw-r--r-- 1 bjb2chen nooijen  144601 Dec  4 10:26 /home/bjb2chen/gmsscr//AsH3cat_cct_gmcpt_C1_3st_diab_refG.F05
-rw-r--r-- 1 bjb2chen nooijen 2186120 Dec  4 10:28 /home/bjb2chen/gmsscr//AsH3cat_cct_gmcpt_C1_3st_diab_refG.F09
-rw-r--r-- 1 bjb2chen nooijen 3240288 Dec  4 10:28 /home/bjb2chen/gmsscr//AsH3cat_cct_gmcpt_C1_3st_diab_refG.F09.001
-rw-r--r-- 1 bjb2chen nooijen 3010240 Dec  4 10:28 /home/bjb2chen/gmsscr//AsH3cat_cct_gmcpt_C1_3st_diab_refG.F10
-rw-r--r-- 1 bjb2chen nooijen  652248 Dec  4 10:28 /home/bjb2chen/gmsscr//AsH3cat_cct_gmcpt_C1_3st_diab_refG.F13
-rw-r--r-- 1 bjb2chen nooijen  652248 Dec  4 10:28 /home/bjb2chen/gmsscr//AsH3cat_cct_gmcpt_C1_3st_diab_refG.F13.001
-rw-r--r-- 1 bjb2chen nooijen  181872 Dec  4 10:28 /home/bjb2chen/gmsscr//AsH3cat_cct_gmcpt_C1_3st_diab_refG.F15
-rw-r--r-- 1 bjb2chen nooijen       0 Dec  4 10:26 /home/bjb2chen/gmsscr//AsH3cat_cct_gmcpt_C1_3st_diab_refG.F16
-rw-r--r-- 1 bjb2chen nooijen    9808 Dec  4 10:28 /home/bjb2chen/gmsscr//AsH3cat_cct_gmcpt_C1_3st_diab_refG.F70
-rw-r--r-- 1 bjb2chen nooijen    9808 Dec  4 10:28 /home/bjb2chen/gmsscr//AsH3cat_cct_gmcpt_C1_3st_diab_refG.F70.001
-rw-r--r-- 1 bjb2chen nooijen    9808 Dec  4 10:28 /home/bjb2chen/gmsscr//AsH3cat_cct_gmcpt_C1_3st_diab_refG.F71
-rw-r--r-- 1 bjb2chen nooijen    9808 Dec  4 10:28 /home/bjb2chen/gmsscr//AsH3cat_cct_gmcpt_C1_3st_diab_refG.F71.001
-rw-r--r-- 1 bjb2chen nooijen   19608 Dec  4 10:28 /home/bjb2chen/gmsscr//AsH3cat_cct_gmcpt_C1_3st_diab_refG.F72
-rw-r--r-- 1 bjb2chen nooijen   19608 Dec  4 10:28 /home/bjb2chen/gmsscr//AsH3cat_cct_gmcpt_C1_3st_diab_refG.F72.001
-rw-r--r-- 1 bjb2chen nooijen   19608 Dec  4 10:28 /home/bjb2chen/gmsscr//AsH3cat_cct_gmcpt_C1_3st_diab_refG.F73
-rw-r--r-- 1 bjb2chen nooijen   19608 Dec  4 10:28 /home/bjb2chen/gmsscr//AsH3cat_cct_gmcpt_C1_3st_diab_refG.F73.001
-rw-r--r-- 1 bjb2chen nooijen  961208 Dec  4 10:28 /home/bjb2chen/gmsscr//AsH3cat_cct_gmcpt_C1_3st_diab_refG.F74
-rw-r--r-- 1 bjb2chen nooijen  959640 Dec  4 10:28 /home/bjb2chen/gmsscr//AsH3cat_cct_gmcpt_C1_3st_diab_refG.F74.001
-rw-r--r-- 1 bjb2chen nooijen       0 Dec  4 10:26 /home/bjb2chen/gmsscr//AsH3cat_cct_gmcpt_C1_3st_diab_refG.F75
-rw-r--r-- 1 bjb2chen nooijen       0 Dec  4 10:26 /home/bjb2chen/gmsscr//AsH3cat_cct_gmcpt_C1_3st_diab_refG.F75.001
-rw-r--r-- 1 bjb2chen nooijen   78456 Dec  4 10:28 /home/bjb2chen/gmsscr//AsH3cat_cct_gmcpt_C1_3st_diab_refG.F76
-rw-r--r-- 1 bjb2chen nooijen   78456 Dec  4 10:28 /home/bjb2chen/gmsscr//AsH3cat_cct_gmcpt_C1_3st_diab_refG.F76.001
-rw-r--r-- 1 bjb2chen nooijen       0 Dec  4 10:26 /home/bjb2chen/gmsscr//AsH3cat_cct_gmcpt_C1_3st_diab_refG.F77
-rw-r--r-- 1 bjb2chen nooijen       0 Dec  4 10:26 /home/bjb2chen/gmsscr//AsH3cat_cct_gmcpt_C1_3st_diab_refG.F77.001
-rw-r--r-- 1 bjb2chen nooijen    6408 Dec  4 10:28 /home/bjb2chen/gmsscr//AsH3cat_cct_gmcpt_C1_3st_diab_refG.F78
-rw-r--r-- 1 bjb2chen nooijen    6408 Dec  4 10:28 /home/bjb2chen/gmsscr//AsH3cat_cct_gmcpt_C1_3st_diab_refG.F78.001
-rw-r--r-- 1 bjb2chen nooijen   49008 Dec  4 10:28 /home/bjb2chen/gmsscr//AsH3cat_cct_gmcpt_C1_3st_diab_refG.F79
-rw-r--r-- 1 bjb2chen nooijen   49008 Dec  4 10:28 /home/bjb2chen/gmsscr//AsH3cat_cct_gmcpt_C1_3st_diab_refG.F79.001
-rw-r--r-- 1 bjb2chen nooijen     168 Dec  4 10:28 /home/bjb2chen/gmsscr//AsH3cat_cct_gmcpt_C1_3st_diab_refG.F80
-rw-r--r-- 1 bjb2chen nooijen     168 Dec  4 10:28 /home/bjb2chen/gmsscr//AsH3cat_cct_gmcpt_C1_3st_diab_refG.F80.001
-rw-r--r-- 1 bjb2chen nooijen  102416 Dec  4 10:28 /home/bjb2chen/gmsscr//AsH3cat_cct_gmcpt_C1_3st_diab_refG.F81
-rw-r--r-- 1 bjb2chen nooijen  102416 Dec  4 10:28 /home/bjb2chen/gmsscr//AsH3cat_cct_gmcpt_C1_3st_diab_refG.F81.001
-rw-r--r-- 1 bjb2chen nooijen     656 Dec  4 10:28 /home/bjb2chen/gmsscr//AsH3cat_cct_gmcpt_C1_3st_diab_refG.F82
-rw-r--r-- 1 bjb2chen nooijen     656 Dec  4 10:28 /home/bjb2chen/gmsscr//AsH3cat_cct_gmcpt_C1_3st_diab_refG.F82.001
-rw-r--r-- 1 bjb2chen nooijen   19216 Dec  4 10:28 /home/bjb2chen/gmsscr//AsH3cat_cct_gmcpt_C1_3st_diab_refG.F83
-rw-r--r-- 1 bjb2chen nooijen   19216 Dec  4 10:28 /home/bjb2chen/gmsscr//AsH3cat_cct_gmcpt_C1_3st_diab_refG.F83.001
-rw-r--r-- 1 bjb2chen nooijen  327696 Dec  4 10:28 /home/bjb2chen/gmsscr//AsH3cat_cct_gmcpt_C1_3st_diab_refG.F84
-rw-r--r-- 1 bjb2chen nooijen  327696 Dec  4 10:28 /home/bjb2chen/gmsscr//AsH3cat_cct_gmcpt_C1_3st_diab_refG.F84.001
-rw-r--r-- 1 bjb2chen nooijen 1834536 Dec  4 10:28 /home/bjb2chen/gmsscr//AsH3cat_cct_gmcpt_C1_3st_diab_refG.F85
-rw-r--r-- 1 bjb2chen nooijen 1834536 Dec  4 10:28 /home/bjb2chen/gmsscr//AsH3cat_cct_gmcpt_C1_3st_diab_refG.F85.001
-rw-r--r-- 1 bjb2chen nooijen 7527840 Dec  4 10:28 /home/bjb2chen/gmsscr//AsH3cat_cct_gmcpt_C1_3st_diab_refG.F86
-rw-r--r-- 1 bjb2chen nooijen 7501856 Dec  4 10:28 /home/bjb2chen/gmsscr//AsH3cat_cct_gmcpt_C1_3st_diab_refG.F86.001
-rw-r--r-- 1 bjb2chen nooijen    1160 Dec  4 10:28 /home/bjb2chen/gmsscr//AsH3cat_cct_gmcpt_C1_3st_diab_refG.F87
-rw-r--r-- 1 bjb2chen nooijen    1160 Dec  4 10:28 /home/bjb2chen/gmsscr//AsH3cat_cct_gmcpt_C1_3st_diab_refG.F87.001
-rw-r--r-- 1 bjb2chen nooijen   34144 Dec  4 10:28 /home/bjb2chen/gmsscr//AsH3cat_cct_gmcpt_C1_3st_diab_refG.F88
-rw-r--r-- 1 bjb2chen nooijen   34144 Dec  4 10:28 /home/bjb2chen/gmsscr//AsH3cat_cct_gmcpt_C1_3st_diab_refG.F88.001
-rw-r--r-- 1 bjb2chen nooijen     648 Dec  4 10:28 /home/bjb2chen/gmsscr//AsH3cat_cct_gmcpt_C1_3st_diab_refG.F89
-rw-r--r-- 1 bjb2chen nooijen     648 Dec  4 10:28 /home/bjb2chen/gmsscr//AsH3cat_cct_gmcpt_C1_3st_diab_refG.F89.001
-rw-r--r-- 1 bjb2chen nooijen       0 Dec  4 10:26 /home/bjb2chen/gmsscr//AsH3cat_cct_gmcpt_C1_3st_diab_refG.F90
-rw-r--r-- 1 bjb2chen nooijen       0 Dec  4 10:26 /home/bjb2chen/gmsscr//AsH3cat_cct_gmcpt_C1_3st_diab_refG.F90.001
-rw-r--r-- 1 bjb2chen nooijen   13760 Dec  4 10:28 /home/bjb2chen/gmsscr//AsH3cat_cct_gmcpt_C1_3st_diab_refG.F91
-rw-r--r-- 1 bjb2chen nooijen   13760 Dec  4 10:28 /home/bjb2chen/gmsscr//AsH3cat_cct_gmcpt_C1_3st_diab_refG.F91.001
-rw-r--r-- 1 bjb2chen nooijen   22776 Dec  4 10:28 /home/bjb2chen/gmsscr//AsH3cat_cct_gmcpt_C1_3st_diab_refG.F92
-rw-r--r-- 1 bjb2chen nooijen   22776 Dec  4 10:28 /home/bjb2chen/gmsscr//AsH3cat_cct_gmcpt_C1_3st_diab_refG.F92.001
-rw-r--r-- 1 bjb2chen nooijen   23168 Dec  4 10:28 /home/bjb2chen/gmsscr//AsH3cat_cct_gmcpt_C1_3st_diab_refG.F93
-rw-r--r-- 1 bjb2chen nooijen   23168 Dec  4 10:28 /home/bjb2chen/gmsscr//AsH3cat_cct_gmcpt_C1_3st_diab_refG.F93.001
-rw-r--r-- 1 bjb2chen nooijen   22776 Dec  4 10:28 /home/bjb2chen/gmsscr//AsH3cat_cct_gmcpt_C1_3st_diab_refG.F94
-rw-r--r-- 1 bjb2chen nooijen   22776 Dec  4 10:28 /home/bjb2chen/gmsscr//AsH3cat_cct_gmcpt_C1_3st_diab_refG.F94.001
-rw-r--r-- 1 bjb2chen nooijen   13760 Dec  4 10:28 /home/bjb2chen/gmsscr//AsH3cat_cct_gmcpt_C1_3st_diab_refG.F95
-rw-r--r-- 1 bjb2chen nooijen   13760 Dec  4 10:28 /home/bjb2chen/gmsscr//AsH3cat_cct_gmcpt_C1_3st_diab_refG.F95.001
-rw-r--r-- 1 bjb2chen nooijen   39248 Dec  4 10:28 /home/bjb2chen/gmsscr//AsH3cat_cct_gmcpt_C1_3st_diab_refG.F96
-rw-r--r-- 1 bjb2chen nooijen   39248 Dec  4 10:28 /home/bjb2chen/gmsscr//AsH3cat_cct_gmcpt_C1_3st_diab_refG.F96.001
-rw-r--r-- 1 bjb2chen nooijen    1184 Dec  4 10:28 /home/bjb2chen/gmsscr//AsH3cat_cct_gmcpt_C1_3st_diab_refG.F97
-rw-r--r-- 1 bjb2chen nooijen    1184 Dec  4 10:28 /home/bjb2chen/gmsscr//AsH3cat_cct_gmcpt_C1_3st_diab_refG.F97.001
-rw-r--r-- 1 bjb2chen nooijen    9808 Dec  4 10:28 /home/bjb2chen/gmsscr//AsH3cat_cct_gmcpt_C1_3st_diab_refG.F98
-rw-r--r-- 1 bjb2chen nooijen    9808 Dec  4 10:28 /home/bjb2chen/gmsscr//AsH3cat_cct_gmcpt_C1_3st_diab_refG.F98.001
-rw-r--r-- 1 bjb2chen nooijen   30264 Dec  4 10:28 /home/bjb2chen/gmsscr//AsH3cat_cct_gmcpt_C1_3st_diab_refG.F99
-rw-r--r-- 1 bjb2chen nooijen   30264 Dec  4 10:28 /home/bjb2chen/gmsscr//AsH3cat_cct_gmcpt_C1_3st_diab_refG.F99.001
ls: No match.
ls: No match.
ls: No match.
Mon 04 Dec 2023 10:28:42 AM EST
0.260u 0.055s 1:47.89 0.2%	0+0k 288+496io 0pf+0w
