----- GAMESS execution script 'rungms' -----
This job is running on host io003
under operating system Linux at Tue 26 Mar 2024 01:37:42 PM EDT
Available scratch disk space (Kbyte units) at beginning of the job is
Filesystem             1K-blocks       Used Available Use% Mounted on
helmholtz.nlogn:/home 6391504896 5351853056 717512704  89% /home
GAMESS temporary binary files will be written to /home/bjb2chen/gmsscr/
GAMESS supplementary output files will be written to /home/bjb2chen/gamess/vibronics/template_examples/Fe_pentaCO
Copying input file FeCO_SPK_gmcpt_C1_mult1_TZ8o10eAFTER9o12e_1st.inp to your run's scratch directory...
cp FeCO_SPK_gmcpt_C1_mult1_TZ8o10eAFTER9o12e_1st.inp /home/bjb2chen/gmsscr//FeCO_SPK_gmcpt_C1_mult1_TZ8o10eAFTER9o12e_1st.F05
unset echo
 
Assuming a single but multicore node.
 
/home/bjb2chen/gamess/ddikick.x /home/bjb2chen/gamess/gamess.00.x FeCO_SPK_gmcpt_C1_mult1_TZ8o10eAFTER9o12e_1st -ddi 1 10 io003:cpus=10 -scr /home/bjb2chen/gmsscr/

 Distributed Data Interface kickoff program.
 Initiating 10 compute processes on 1 nodes to run the following command:
 /home/bjb2chen/gamess/gamess.00.x FeCO_SPK_gmcpt_C1_mult1_TZ8o10eAFTER9o12e_1st 

          ******************************************************
          *         GAMESS VERSION = 02 AUG 2018 (R2)         *
          *             FROM IOWA STATE UNIVERSITY             *
          * M.W.SCHMIDT, K.K.BALDRIDGE, J.A.BOATZ, S.T.ELBERT, *
          *   M.S.GORDON, J.H.JENSEN, S.KOSEKI, N.MATSUNAGA,   *
          *          K.A.NGUYEN, S.J.SU, T.L.WINDUS,           *
          *       TOGETHER WITH M.DUPUIS, J.A.MONTGOMERY       *
          *         J.COMPUT.CHEM.  14, 1347-1363(1993)        *
          **************** 64 BIT LINUX VERSION ****************

  SINCE 1993, STUDENTS AND POSTDOCS WORKING AT IOWA STATE UNIVERSITY
  AND ALSO IN THEIR VARIOUS JOBS AFTER LEAVING ISU HAVE MADE IMPORTANT
  CONTRIBUTIONS TO THE CODE:
     IVANA ADAMOVIC, CHRISTINE AIKENS, YURI ALEXEEV, POOJA ARORA,
     ANDREY ASADCHEV, ROB BELL, PRADIPTA BANDYOPADHYAY, JONATHAN BENTZ,
     BRETT BODE, KURT BRORSEN, CALEB CARLIN, GALINA CHABAN, WEI CHEN,
     CHEOL HO CHOI, PAUL DAY, ALBERT DEFUSCO, NUWAN DESILVA, TIM DUDLEY,
     DMITRI FEDOROV, ALEX FINDLATER, GRAHAM FLETCHER, MARK FREITAG,
     KURT GLAESEMANN, ANASTASIA GUININA,
     DAN KEMP, GRANT MERRILL, NORIYUKI MINEZAWA, JONATHAN MULLIN,
     TAKESHI NAGATA, SEAN NEDD, HEATHER NETZLOFF, BOSILJKA NJEGIC, RYAN OLSON,
     MIKE PAK, BUU PHAM,
     SPENCER PRUITT, LUKE ROSKOP, JIM SHOEMAKER, LYUDMILA SLIPCHENKO,
     TONY SMITH, SAROM SOK LEANG, JIE SONG, TETSUYA TAKETSUGU, SIMON WEBB,
     PENG XU, SOOHAENG YOO, FEDERICO ZAHARIEV

  ADDITIONAL CODE HAS BEEN PROVIDED BY COLLABORATORS IN OTHER GROUPS:
     IOWA STATE UNIVERSITY:
          JOE IVANIC, AARON WEST, LAIMUTIS BYTAUTAS, KLAUS RUEDENBERG
     UNIVERSITY OF TOKYO: KIMIHIKO HIRAO, TAKAHITO NAKAJIMA,
          TAKAO TSUNEDA, MUNEAKI KAMIYA, SUSUMU YANAGISAWA,
          KIYOSHI YAGI, MAHITO CHIBA, SEIKEN TOKURA, NAOAKI KAWAKAMI
     UNIVERSITY OF AARHUS: FRANK JENSEN
     UNIVERSITY OF IOWA: VISVALDAS KAIRYS, HUI LI
     NATIONAL INST. OF STANDARDS AND TECHNOLOGY: WALT STEVENS, DAVID GARMER
     UNIVERSITY OF PISA: BENEDETTA MENNUCCI, JACOPO TOMASI
     UNIVERSITY OF MEMPHIS: HENRY KURTZ, PRAKASHAN KORAMBATH
     UNIVERSITY OF ALBERTA: TOBY ZENG, MARIUSZ KLOBUKOWSKI
     UNIVERSITY OF NEW ENGLAND: MARK SPACKMAN
     MIE UNIVERSITY: HIROAKI UMEDA
     NAT. INST. OF ADVANCED INDUSTRIAL SCIENCE AND TECHNOLOGY: KAZUO KITAURA
     MICHIGAN STATE UNIVERSITY:
          KAROL KOWALSKI, MARTA WLOCH, JEFFREY GOUR, JESSE LUTZ,
          WEI LI, JUN SHEN, J. EMILIANO DEUSTUA, PIOTR PIECUCH
     UNIVERSITY OF MINNESOTA:
          YINAN SHU
     UNIVERSITY OF SILESIA: MONIKA MUSIAL, STANISLAW KUCHARSKI
     FACULTES UNIVERSITAIRES NOTRE-DAME DE LA PAIX:
          OLIVIER QUINET, BENOIT CHAMPAGNE
     UNIVERSITY OF CALIFORNIA - SANTA BARBARA: BERNARD KIRTMAN
     INSTITUTE FOR MOLECULAR SCIENCE:
          KAZUYA ISHIMURA, MICHIO KATOUDA, AND SHIGERU NAGASE
     UNIVERSITY OF NOTRE DAME: ANNA POMOGAEVA, DAN CHIPMAN
     KYUSHU UNIVERSITY:
          HARUYUKI NAKANO,
          FENG LONG GU, JACEK KORCHOWIEC, MARCIN MAKOWSKI, AND YURIKO AOKI,
          HIROTOSHI MORI AND EISAKU MIYOSHI
     PENNSYLVANIA STATE UNIVERSITY:
          TZVETELIN IORDANOV, CHET SWALINA, JONATHAN SKONE,
          SHARON HAMMES-SCHIFFER
     WASEDA UNIVERSITY:
          MASATO KOBAYASHI, TOMOKO AKAMA, TSUGUKI TOUMA,
          TAKESHI YOSHIKAWA, YASUHIRO IKABATA, JUNJI SEINO,
          YUYA NAKAJIMA, HIROMI NAKAI
     NANJING UNIVERSITY: SHUHUA LI
     UNIVERSITY OF NEBRASKA:
          PEIFENG SU, DEJUN SI, NANDUN THELLAMUREGE, YALI WANG, HUI LI
     UNIVERSITY OF ZURICH: ROBERTO PEVERATI, KIM BALDRIDGE
     N. COPERNICUS UNIVERSITY AND JACKSON STATE UNIVERSITY:
          MARIA BARYSZ
     UNIVERSITY OF COPENHAGEN: Jimmy Kromann, CASPER STEINMANN
     TOKYO INSTITUTE OF TECHNOLOGY: HIROYA NAKATA
     NAGOYA UNIVERSITY: YOSHIO NISHIMOTO, STEPHAN IRLE
     MOSCOW STATE UNIVERSITY: VLADIMIR MIRONOV


 PARALLEL VERSION RUNNING ON       10 PROCESSORS IN        1 NODES.

 EXECUTION OF GAMESS BEGUN Tue Mar 26 13:37:42 2024

            ECHO OF THE FIRST FEW INPUT CARDS -
 INPUT CARD> !############################################################################# 
 INPUT CARD> !                   D_3h RHF GEOMETRY OPTIMIZATION AND HESSIAN TEMPLATE        
 INPUT CARD> ! ---------------------------------------------------------------------------  
 INPUT CARD> ! Replace the symmetry-correct coordinates, should only be two atoms.          
 INPUT CARD> ! The hydrogen or fluorine should have only one non-zero x,y,z coordinate.     
 INPUT CARD> !                                                                              
 INPUT CARD> ! Basis set?   gbasis=ccd for 2nd row,                                         
 INPUT CARD> !                         cct 3rd/4th,                                         
 INPUT CARD> !                   SPKrTZP for heavy,                                         
 INPUT CARD> !                   SPKrTZC beyond 4th                                         
 INPUT CARD> !                                                                              
 INPUT CARD> !############################################################################# 
 INPUT CARD> $system kdiag=3 mwords=1000 memddi=25000 parall=.t. $end                       
 INPUT CARD> $contrl runtyp=energy ispher=1 $end                                            
 INPUT CARD> $contrl icut=9 itol=20 inttyp=rysquad qmttol=1.0d-05 nosym=1 $end              
 INPUT CARD> $contrl scftyp=mcscf  mult=1 maxit=200 icharg=0 mplevl=2 $end                  
 INPUT CARD> $scf    npunch=2 conv=1.0d-06 dirscf=.t. $end                                  
 INPUT CARD> $force  method=seminum $end                                                    
 INPUT CARD> $trans  dirtrf=.t. $end                                                        
 INPUT CARD> $statpt hssend=.t. $end                                                        
 INPUT CARD> $basis  gbasis=SPKrTZP $end                                                    
 INPUT CARD> !############################################################################# 
 INPUT CARD> !                                                                              
 INPUT CARD> !                       TURN ON THIS SECTION IF HEAVY ATOM                     
 INPUT CARD> !                                                                              
 INPUT CARD> !############################################################################# 
 INPUT CARD> !                                                                              
 INPUT CARD> $contrl relwfn=LUT-IOTC $end                                                   
 INPUT CARD> $scf  diis=.t. soscf=.f. ethrsh=10.0 $end                                      
 INPUT CARD> $guess iorder(43)=44 iorder(44)=43 $end                                        
 INPUT CARD> $gmcpt nsolut=100 $end                                                         
 INPUT CARD> !                                                                              
 INPUT CARD> !############################################################################# 
 INPUT CARD> !                                                                              
 INPUT CARD> ! TURN ON THIS SECTION IF GMCPT, CHANGE runtyp=energy, scftyp=mcscf, change nos
 INPUT CARD> !                                                                              
 INPUT CARD> !############################################################################# 
 INPUT CARD> $guess  guess=moread norb=369 purify=.t. norder=1 $end                         
 INPUT CARD> $mcscf  cistep=gmcci fullnr=.t. finci=mos                                      
 INPUT CARD>         acurcy=1.d-6 maxit=100 $end                                            
 INPUT CARD> $mrmp   mrpt=gmcpt rdvecs=.f. $end                                             
 INPUT CARD> $gmcpt  nmofzc=19 nmodoc=24 nmoact=8 nelact=10 stsym(1)=A                      
 INPUT CARD>         reftyp=ormas nspace=1 mstart(1)=44 mine(1)=10 maxe(1)=10               
 INPUT CARD>         kstate(1)=1                                                            
 INPUT CARD>         wstate(1)=1                                                            
 INPUT CARD>         iwgt=0 thrwgt=-1.0 krot=.f. kszdoe=.f. knospn=.f.                      
 INPUT CARD>         thrde=-1.0 edshft=0.02 maxbas=800 $end                                 
 INPUT CARD> !############################################################################# 
 INPUT CARD> !                                                                              
 INPUT CARD> !             TURN OFF THIS SECTION IF temp.inp, add C1                        
 1000000000 WORDS OF MEMORY AVAILABLE

     $BASIS REQUESTS READING THE "SPKRTZP " BASIS SET FROM AN EXTERNAL FILE


     RUN TITLE
     ---------
  Iron pentacarbonyl optimization                                                

 THE POINT GROUP OF THE MOLECULE IS C1      
 THE ORDER OF THE PRINCIPAL AXIS IS     0

 THE EXTERNAL BASIS SET FILE BEING READ IS
     "/home/bjb2chen/gamess/auxdata/BASES/SPKRTZP"

 ATOM      ATOMIC                      COORDINATES (BOHR)
           CHARGE         X                   Y                   Z
 FE         26.0    -0.0000000000        0.0000000000        0.0000000000
 C           6.0    -1.6675781301        2.8883300469        0.0000000000
 C           6.0    -1.6675781301       -2.8883300469        0.0000000000
 C           6.0     3.3351562601        0.0000000000        0.0000000000
 O           8.0    -2.7565274144        4.7744455343        0.0000000000
 O           8.0    -2.7565274144       -4.7744455343        0.0000000000
 O           8.0     5.5130548290        0.0000000000        0.0000000000
 C           6.0     0.0000000000        0.0000000000       -3.1711668130
 C           6.0    -0.0000000000        0.0000000000        3.1711668130
 O           8.0    -0.0000000000        0.0000000000       -5.3731288034
 O           8.0    -0.0000000000        0.0000000000        5.3731288034

          INTERNUCLEAR DISTANCES (ANGS.)
          ------------------------------

                1 FE         2 C          3 C          4 C          5 O     

   1 FE      0.0000000    1.7648888 *  1.7648888 *  1.7648888 *  2.9173832 *
   2 C       1.7648888 *  0.0000000    3.0568771    3.0568771    1.1524944 *
   3 C       1.7648888 *  3.0568771    0.0000000    3.0568771    4.0957068  
   4 C       1.7648888 *  3.0568771    3.0568771    0.0000000    4.0957068  
   5 O       2.9173832 *  1.1524944 *  4.0957068    4.0957068    0.0000000  
   6 O       2.9173832 *  4.0957068    1.1524944 *  4.0957068    5.0530559  
   7 O       2.9173832 *  4.0957068    4.0957068    1.1524944 *  5.0530559  
   8 C       1.6781093 *  2.4353405 *  2.4353405 *  2.4353405 *  3.3655870  
   9 C       1.6781093 *  2.4353405 *  2.4353405 *  2.4353405 *  3.3655870  
  10 O       2.8433375 *  3.3465506    3.3465506    3.3465506    4.0737812  
  11 O       2.8433375 *  3.3465506    3.3465506    3.3465506    4.0737812  

                6 O          7 O          8 C          9 C         10 O     

   1 FE      2.9173832 *  2.9173832 *  1.6781093 *  1.6781093 *  2.8433375 *
   2 C       4.0957068    4.0957068    2.4353405 *  2.4353405 *  3.3465506  
   3 C       1.1524944 *  4.0957068    2.4353405 *  2.4353405 *  3.3465506  
   4 C       4.0957068    1.1524944 *  2.4353405 *  2.4353405 *  3.3465506  
   5 O       5.0530559    5.0530559    3.3655870    3.3655870    4.0737812  
   6 O       0.0000000    5.0530559    3.3655870    3.3655870    4.0737812  
   7 O       5.0530559    0.0000000    3.3655870    3.3655870    4.0737812  
   8 C       3.3655870    3.3655870    0.0000000    3.3562187    1.1652282 *
   9 C       3.3655870    3.3655870    3.3562187    0.0000000    4.5214469  
  10 O       4.0737812    4.0737812    1.1652282 *  4.5214469    0.0000000  
  11 O       4.0737812    4.0737812    4.5214469    1.1652282 *  5.6866750  

               11 O     

   1 FE      2.8433375 *
   2 C       3.3465506  
   3 C       3.3465506  
   4 C       3.3465506  
   5 O       4.0737812  
   6 O       4.0737812  
   7 O       4.0737812  
   8 C       4.5214469  
   9 C       1.1652282 *
  10 O       5.6866750  
  11 O       0.0000000  

  * ... LESS THAN  3.000


     ATOMIC BASIS SET
     ----------------
 THE CONTRACTED PRIMITIVE FUNCTIONS HAVE BEEN UNNORMALIZED
 THE CONTRACTED BASIS FUNCTIONS ARE NOW NORMALIZED TO UNITY

  SHELL TYPE  PRIMITIVE        EXPONENT          CONTRACTION COEFFICIENT(S)

 FE        

      1   S       1       1100791.5305010    0.000473999976
      1   S       2        111958.3587060    0.002184999889
      1   S       3         19185.3576710    0.008689999559
      1   S       4          4445.3037100    0.032685998341
      1   S       5          1266.9965100    0.110141994410
      1   S       6           416.6310290    0.284031985586
      1   S       7           150.8643160    0.454264876947
      1   S       8            56.3399190    0.263064986650

      2   S       9           359.6946140   -0.022463999939
      2   S      10           108.1698330   -0.110348999698
      2   S      11            16.2239570    0.581708898408
      2   S      12             6.5680420    0.504839898618

      3   S      13            10.7418790   -0.362092191734
      3   S      14             1.7503840    1.164823573408

      4   S      15             2.5115960    1.000000000000

      5   S      16             0.7053330    1.000000000000

      6   S      17             0.3621190    1.000000000000

      7   S      18             0.1098870    1.000000000000

      8   S      19             0.0389760    1.000000000000

      9   P      20          3763.5373930    0.001033999945
      9   P      21           777.6255800    0.008099999572
      9   P      22           235.1625800    0.042150997771
      9   P      23            85.2386240    0.150979992017
      9   P      24            34.2178420    0.344345981793
      9   P      25            14.4530580    0.445691976434
      9   P      26             6.0108430    0.197984989532

     10   P      27            29.2356570   -0.050671998602
     10   P      28             3.8658850    1.015612071978

     11   P      29             1.5321320    1.000000000000

     12   P      30             0.6880240    1.000000000000

     13   P      31             0.3377060    1.000000000000

     14   P      32             0.1058510    1.000000000000

     15   D      33           153.1499290    0.002483999928
     15   D      34            39.2185330    0.024814999278
     15   D      35            13.1241220    0.112497096729
     15   D      36             4.9420130    0.294331191441
     15   D      37             1.9182510    0.436439287309
     15   D      38             0.7263080    0.400155288364

     16   D      39             1.2013780    1.000000000000

     17   D      40             0.4134800    1.000000000000

     18   D      41             0.2769570    0.803321387841
     18   D      42             0.1024240    0.267279095955

     19   F      43             7.1173700    0.248360909500
     19   F      44             2.0161170    0.867482733183

     20   F      45             0.5734880    1.000000000000

     21   G      46             3.1098950    0.428615975933
     21   G      47             0.8477510    0.770538956734

 C         

     22   S      48          2806.9439975    0.002023800059
     22   S      49           421.5775504    0.015441100454
     22   S      50            95.8957402    0.075177402208
     22   S      51            26.9445497    0.249027707314
     22   S      52             8.5713784    0.482075214159
     22   S      53             2.8716364    0.326878109601

     23   S      54             4.9998841   -0.210680004154
     23   S      55             0.5327613    1.077681121247

     24   S      56             0.2075124    1.000000000000

     25   S      57             0.0868337    1.000000000000

     26   P      58            18.6818848    0.039471499719
     26   P      59             4.1250373    0.244388698258
     26   P      60             1.1979790    0.815218894188

     27   P      61             0.3821592    1.000000000000

     28   P      62             0.1206886    1.000000000000

     29   D      63             3.0148490    0.111983997300
     29   D      64             0.8820640    0.935464277443

     30   D      65             0.2854600    1.000000000000

     31   F      66             1.2468250    0.439684998371
     31   F      67             0.4390430    0.686338997457

 C         

     32   S      68          2806.9439975    0.002023800059
     32   S      69           421.5775504    0.015441100454
     32   S      70            95.8957402    0.075177402208
     32   S      71            26.9445497    0.249027707314
     32   S      72             8.5713784    0.482075214159
     32   S      73             2.8716364    0.326878109601

     33   S      74             4.9998841   -0.210680004154
     33   S      75             0.5327613    1.077681121247

     34   S      76             0.2075124    1.000000000000

     35   S      77             0.0868337    1.000000000000

     36   P      78            18.6818848    0.039471499719
     36   P      79             4.1250373    0.244388698258
     36   P      80             1.1979790    0.815218894188

     37   P      81             0.3821592    1.000000000000

     38   P      82             0.1206886    1.000000000000

     39   D      83             3.0148490    0.111983997300
     39   D      84             0.8820640    0.935464277443

     40   D      85             0.2854600    1.000000000000

     41   F      86             1.2468250    0.439684998371
     41   F      87             0.4390430    0.686338997457

 C         

     42   S      88          2806.9439975    0.002023800059
     42   S      89           421.5775504    0.015441100454
     42   S      90            95.8957402    0.075177402208
     42   S      91            26.9445497    0.249027707314
     42   S      92             8.5713784    0.482075214159
     42   S      93             2.8716364    0.326878109601

     43   S      94             4.9998841   -0.210680004154
     43   S      95             0.5327613    1.077681121247

     44   S      96             0.2075124    1.000000000000

     45   S      97             0.0868337    1.000000000000

     46   P      98            18.6818848    0.039471499719
     46   P      99             4.1250373    0.244388698258
     46   P     100             1.1979790    0.815218894188

     47   P     101             0.3821592    1.000000000000

     48   P     102             0.1206886    1.000000000000

     49   D     103             3.0148490    0.111983997300
     49   D     104             0.8820640    0.935464277443

     50   D     105             0.2854600    1.000000000000

     51   F     106             1.2468250    0.439684998371
     51   F     107             0.4390430    0.686338997457

 O         

     52   S     108          5077.7107079    0.002005200049
     52   S     109           762.6032479    0.015311300372
     52   S     110           173.4747916    0.074816301816
     52   S     111            48.8026730    0.249940906066
     52   S     112            15.6087813    0.483164411726
     52   S     113             5.2562810    0.324034307864

     53   S     114             9.8167720   -0.213008798624
     53   S     115             1.0626144    1.079351093025

     54   S     116             0.4112889    1.000000000000

     55   S     117             0.1672821    1.000000000000

     56   P     118            34.4309698    0.041201500385
     56   P     119             7.7428211    0.257878902408
     56   P     120             2.2788395    0.802283507490

     57   P     121             0.7151603    1.000000000000

     58   P     122             0.2137722    1.000000000000

     59   D     123             5.9603300    0.136289097514
     59   D     124             1.7648530    0.919489483226

     60   D     125             0.5756600    1.000000000000

     61   F     126             2.4143370    0.424090301385
     61   F     127             0.7676600    0.719405502349

 O         

     62   S     128          5077.7107079    0.002005200049
     62   S     129           762.6032479    0.015311300372
     62   S     130           173.4747916    0.074816301816
     62   S     131            48.8026730    0.249940906066
     62   S     132            15.6087813    0.483164411726
     62   S     133             5.2562810    0.324034307864

     63   S     134             9.8167720   -0.213008798624
     63   S     135             1.0626144    1.079351093025

     64   S     136             0.4112889    1.000000000000

     65   S     137             0.1672821    1.000000000000

     66   P     138            34.4309698    0.041201500385
     66   P     139             7.7428211    0.257878902408
     66   P     140             2.2788395    0.802283507490

     67   P     141             0.7151603    1.000000000000

     68   P     142             0.2137722    1.000000000000

     69   D     143             5.9603300    0.136289097514
     69   D     144             1.7648530    0.919489483226

     70   D     145             0.5756600    1.000000000000

     71   F     146             2.4143370    0.424090301385
     71   F     147             0.7676600    0.719405502349

 O         

     72   S     148          5077.7107079    0.002005200049
     72   S     149           762.6032479    0.015311300372
     72   S     150           173.4747916    0.074816301816
     72   S     151            48.8026730    0.249940906066
     72   S     152            15.6087813    0.483164411726
     72   S     153             5.2562810    0.324034307864

     73   S     154             9.8167720   -0.213008798624
     73   S     155             1.0626144    1.079351093025

     74   S     156             0.4112889    1.000000000000

     75   S     157             0.1672821    1.000000000000

     76   P     158            34.4309698    0.041201500385
     76   P     159             7.7428211    0.257878902408
     76   P     160             2.2788395    0.802283507490

     77   P     161             0.7151603    1.000000000000

     78   P     162             0.2137722    1.000000000000

     79   D     163             5.9603300    0.136289097514
     79   D     164             1.7648530    0.919489483226

     80   D     165             0.5756600    1.000000000000

     81   F     166             2.4143370    0.424090301385
     81   F     167             0.7676600    0.719405502349

 C         

     82   S     168          2806.9439975    0.002023800059
     82   S     169           421.5775504    0.015441100454
     82   S     170            95.8957402    0.075177402208
     82   S     171            26.9445497    0.249027707314
     82   S     172             8.5713784    0.482075214159
     82   S     173             2.8716364    0.326878109601

     83   S     174             4.9998841   -0.210680004154
     83   S     175             0.5327613    1.077681121247

     84   S     176             0.2075124    1.000000000000

     85   S     177             0.0868337    1.000000000000

     86   P     178            18.6818848    0.039471499719
     86   P     179             4.1250373    0.244388698258
     86   P     180             1.1979790    0.815218894188

     87   P     181             0.3821592    1.000000000000

     88   P     182             0.1206886    1.000000000000

     89   D     183             3.0148490    0.111983997300
     89   D     184             0.8820640    0.935464277443

     90   D     185             0.2854600    1.000000000000

     91   F     186             1.2468250    0.439684998371
     91   F     187             0.4390430    0.686338997457

 C         

     92   S     188          2806.9439975    0.002023800059
     92   S     189           421.5775504    0.015441100454
     92   S     190            95.8957402    0.075177402208
     92   S     191            26.9445497    0.249027707314
     92   S     192             8.5713784    0.482075214159
     92   S     193             2.8716364    0.326878109601

     93   S     194             4.9998841   -0.210680004154
     93   S     195             0.5327613    1.077681121247

     94   S     196             0.2075124    1.000000000000

     95   S     197             0.0868337    1.000000000000

     96   P     198            18.6818848    0.039471499719
     96   P     199             4.1250373    0.244388698258
     96   P     200             1.1979790    0.815218894188

     97   P     201             0.3821592    1.000000000000

     98   P     202             0.1206886    1.000000000000

     99   D     203             3.0148490    0.111983997300
     99   D     204             0.8820640    0.935464277443

    100   D     205             0.2854600    1.000000000000

    101   F     206             1.2468250    0.439684998371
    101   F     207             0.4390430    0.686338997457

 O         

    102   S     208          5077.7107079    0.002005200049
    102   S     209           762.6032479    0.015311300372
    102   S     210           173.4747916    0.074816301816
    102   S     211            48.8026730    0.249940906066
    102   S     212            15.6087813    0.483164411726
    102   S     213             5.2562810    0.324034307864

    103   S     214             9.8167720   -0.213008798624
    103   S     215             1.0626144    1.079351093025

    104   S     216             0.4112889    1.000000000000

    105   S     217             0.1672821    1.000000000000

    106   P     218            34.4309698    0.041201500385
    106   P     219             7.7428211    0.257878902408
    106   P     220             2.2788395    0.802283507490

    107   P     221             0.7151603    1.000000000000

    108   P     222             0.2137722    1.000000000000

    109   D     223             5.9603300    0.136289097514
    109   D     224             1.7648530    0.919489483226

    110   D     225             0.5756600    1.000000000000

    111   F     226             2.4143370    0.424090301385
    111   F     227             0.7676600    0.719405502349

 O         

    112   S     228          5077.7107079    0.002005200049
    112   S     229           762.6032479    0.015311300372
    112   S     230           173.4747916    0.074816301816
    112   S     231            48.8026730    0.249940906066
    112   S     232            15.6087813    0.483164411726
    112   S     233             5.2562810    0.324034307864

    113   S     234             9.8167720   -0.213008798624
    113   S     235             1.0626144    1.079351093025

    114   S     236             0.4112889    1.000000000000

    115   S     237             0.1672821    1.000000000000

    116   P     238            34.4309698    0.041201500385
    116   P     239             7.7428211    0.257878902408
    116   P     240             2.2788395    0.802283507490

    117   P     241             0.7151603    1.000000000000

    118   P     242             0.2137722    1.000000000000

    119   D     243             5.9603300    0.136289097514
    119   D     244             1.7648530    0.919489483226

    120   D     245             0.5756600    1.000000000000

    121   F     246             2.4143370    0.424090301385
    121   F     247             0.7676600    0.719405502349

 TOTAL NUMBER OF BASIS SET SHELLS             =  121
 NUMBER OF CARTESIAN GAUSSIAN BASIS FUNCTIONS =  435
 NOTE: THIS RUN WILL RESTRICT THE MO VARIATION SPACE TO SPHERICAL HARMONICS.
 THE NUMBER OF ORBITALS KEPT IN THE VARIATIONAL SPACE WILL BE PRINTED LATER.
 NUMBER OF ELECTRONS                          =   96
 CHARGE OF MOLECULE                           =    0
 SPIN MULTIPLICITY                            =    1
 NUMBER OF OCCUPIED ORBITALS (ALPHA)          =   48
 NUMBER OF OCCUPIED ORBITALS (BETA )          =   48
 TOTAL NUMBER OF ATOMS                        =   11
 THE NUCLEAR REPULSION ENERGY IS      825.5537622493

     ---------------------------------
     RELATIVISTIC WAVEFUNCTION OPTIONS
     ---------------------------------
     METHOD=LUT-IOTC NORDER= 2       NESOC=  0      MODEQR=      1
     NRATOM=  0      QMTTOL= 1.000E-10      QRTOL= 1.000E-10
     CLIGHT=137.03598950     TAU= 3.500E+00

 INTERNAL BASIS SET UNCONTRACTION FOR RESC/DK/IOTC/LUT-IOTC:
   247 SHELLS AND    808 AOS ARE CONSTRUCTED, COMPARED TO
   121 SHELLS AND    435 AOS IN THE CONTRACTED BASIS SET


     $CONTRL OPTIONS
     ---------------
 SCFTYP=MCSCF        RUNTYP=ENERGY       EXETYP=RUN     
 MPLEVL=       2     CITYP =NONE         CCTYP =NONE         VBTYP =NONE    
 DFTTYP=NONE         TDDFT =NONE    
 MULT  =       1     ICHARG=       0     NZVAR =       0     COORD =UNIQUE  
 PP    =NONE         RELWFN=LUT-IOTC     LOCAL =NONE         NUMGRD=       F
 ISPHER=       1     NOSYM =       1     MAXIT =     200     UNITS =ANGS    
 PLTORB=       F     MOLPLT=       F     AIMPAC=       F     FRIEND=        
 NPRINT=       7     IREST =       0     GEOM  =INPUT   
 NORMF =       0     NORMP =       0     ITOL  =      20     ICUT  =       9
 INTTYP=RYSQUAD      GRDTYP=BEST         QMTTOL= 1.0E-05

     $SYSTEM OPTIONS
     ---------------
  REPLICATED MEMORY=  1000000000 WORDS (ON EVERY NODE).
 DISTRIBUTED MEMDDI=       25000 MILLION WORDS IN AGGREGATE,
 MEMDDI DISTRIBUTED OVER  10 PROCESSORS IS  2500000000 WORDS/PROCESSOR.
 TOTAL MEMORY REQUESTED ON EACH PROCESSOR=  3500000000 WORDS.
 TIMLIM=      525600.00 MINUTES, OR     365.0 DAYS.
 PARALL= T  BALTYP=  DLB     KDIAG=    3  COREFL= F
 MXSEQ2=     300 MXSEQ3=     150  mem10=         0

          ----------------
          PROPERTIES INPUT
          ----------------

     MOMENTS            FIELD           POTENTIAL          DENSITY
 IEMOM =       1   IEFLD =       0   IEPOT =       0   IEDEN =       0
 WHERE =COMASS     WHERE =NUCLEI     WHERE =NUCLEI     WHERE =NUCLEI  
 OUTPUT=BOTH       OUTPUT=BOTH       OUTPUT=BOTH       OUTPUT=BOTH    
 IEMINT=       0   IEFINT=       0                     IEDINT=       0
                                                       MORB  =       0

     -------------------------------
     INTEGRAL TRANSFORMATION OPTIONS
     -------------------------------
     NWORD  =            0
     CUTOFF = 1.0E-09     MPTRAN =       0
     DIRTRF =       T     AOINTS =DUP     

          ----------------------
          MCSCF INPUT PARAMETERS
          ----------------------
 CONVERGER SELECTION: FOCAS = F  SOSCF = F  FULLNR = T  QUD = F  JACOBI = F
 SECULAR EQUATION METHOD CISTEP = GMCCI   
 --- GENERAL INPUT OPTIONS:
 MAXIT =     100  MICIT =       1  ACURCY= 1.000E-06
 DAMP  =   0.000  CANONC=       T  ENGTOL= 1.000E-10
 EKT   =       F  NPUNCH=       2  NWORD =         0
 REGENERATE CI AFTER CONVERGENCE = NONE    
 DIABATIZATION AFTER CONVERGENCE =        F
 --- INPUT FOR FULLNR CONVERGER:
 METHOD=DM2       FORS  =       F  DROPC =       T
 LINSER=       F  FCORE =       F  NORB  =     435

          ----------------------
          INTEGRAL INPUT OPTIONS
          ----------------------
 NOPK  =       1 NORDER=       0 SCHWRZ=       T

 ------------------------------------------
 MULTIREFERENCE PERTURBATION THEORY CONTROL
 ------------------------------------------
 MRPT=GMCPT    READ CONVERGED MCSCF VECTORS= F


     ------------------------------------------
     THE POINT GROUP IS C1 , NAXIS= 1, ORDER= 1
     ------------------------------------------

 -- VARIATIONAL SPACE WILL BE RESTRICTED TO PURE SPHERICAL HARMONICS ONLY --
 AFTER EXCLUDING CONTAMINANT COMBINATIONS FROM THE CARTESIAN GAUSSIAN BASIS
 SET, THE NUMBER OF SPHERICAL HARMONICS KEPT IN THE VARIATION SPACE IS  369

     DIMENSIONS OF THE SYMMETRY SUBSPACES ARE
 A   =  369

 ..... DONE SETTING UP THE RUN .....
 CPU     0: STEP CPU TIME=     1.45 TOTAL CPU TIME=          1.4 (      0.0 MIN)
 TOTAL WALL CLOCK TIME=          1.7 SECONDS, CPU UTILIZATION IS    83.82%

          ********************
          1 ELECTRON INTEGRALS
          ********************
 TIME TO DO ORDINARY INTEGRALS=      0.02

 ======================================================================
      INFINITE-ORDER TWO-COMPONENT (IOTC) ONE-ELECTRON HAMILTONIAN
      WITH LOCAL UNITARY TRANSFORMATION (LUT) SCHEME
                                            CODED BY YUYA NAKAJIMA
             J. SEINO, H. NAKAI, J. CHEM. PHYS. 136, 244102 (2012)
             J. SEINO, H. NAKAI, J. CHEM. PHYS. 137, 144101 (2012)
             J. SEINO, H. NAKAI, J. CHEM. PHYS. 139, 034109 (2013)
        J. SEINO, H. NAKAI, INT. J. QUANTUM. CHEM. 115, 253 (2015)
 ======================================================================

 LUT-IOTC TRANSFORMATION FOR ATOM:    1
 THE SMALLEST EIGENVALUE OF THE OVERLAP MATRIX IS   5.23E-12
 THERE ARE     2 OVERLAP MATRIX EIGENVALUES LESS THAN   1.00E-10
 THE NUMBER OF LINEARLY INDEPENDENT ORBITALS KEPT IS   176

 LUT-IOTC TRANSFORMATION FOR ATOM:    2
 LUT-IOTC TRANSFORMATION FOR ATOM:    3
 LUT-IOTC TRANSFORMATION FOR ATOM:    4
 LUT-IOTC TRANSFORMATION FOR ATOM:    5
 LUT-IOTC TRANSFORMATION FOR ATOM:    6
 LUT-IOTC TRANSFORMATION FOR ATOM:    7
 LUT-IOTC TRANSFORMATION FOR ATOM:    8
 LUT-IOTC TRANSFORMATION FOR ATOM:    9
 LUT-IOTC TRANSFORMATION FOR ATOM:   10
 LUT-IOTC TRANSFORMATION FOR ATOM:   11

     -------------------------------------
     LUT-IOTC TRANSFORMATION FOR ATOM-PAIR
     -------------------------------------

                1 FE         2 C          3 C          4 C          5 O     

   1 FE      0.0000000    1.7648888 *  1.7648888 *  1.7648888 *  2.9173832 *
   2 C       1.7648888 *  0.0000000    3.0568771 *  3.0568771 *  1.1524944 *
   3 C       1.7648888 *  3.0568771 *  0.0000000    3.0568771 *  4.0957068  
   4 C       1.7648888 *  3.0568771 *  3.0568771 *  0.0000000    4.0957068  
   5 O       2.9173832 *  1.1524944 *  4.0957068    4.0957068    0.0000000  
   6 O       2.9173832 *  4.0957068    1.1524944 *  4.0957068    5.0530559  
   7 O       2.9173832 *  4.0957068    4.0957068    1.1524944 *  5.0530559  
   8 C       1.6781093 *  2.4353405 *  2.4353405 *  2.4353405 *  3.3655870 *
   9 C       1.6781093 *  2.4353405 *  2.4353405 *  2.4353405 *  3.3655870 *
  10 O       2.8433375 *  3.3465506 *  3.3465506 *  3.3465506 *  4.0737812  
  11 O       2.8433375 *  3.3465506 *  3.3465506 *  3.3465506 *  4.0737812  

                6 O          7 O          8 C          9 C         10 O     

   1 FE      2.9173832 *  2.9173832 *  1.6781093 *  1.6781093 *  2.8433375 *
   2 C       4.0957068    4.0957068    2.4353405 *  2.4353405 *  3.3465506 *
   3 C       1.1524944 *  4.0957068    2.4353405 *  2.4353405 *  3.3465506 *
   4 C       4.0957068    1.1524944 *  2.4353405 *  2.4353405 *  3.3465506 *
   5 O       5.0530559    5.0530559    3.3655870 *  3.3655870 *  4.0737812  
   6 O       0.0000000    5.0530559    3.3655870 *  3.3655870 *  4.0737812  
   7 O       5.0530559    0.0000000    3.3655870 *  3.3655870 *  4.0737812  
   8 C       3.3655870 *  3.3655870 *  0.0000000    3.3562187 *  1.1652282 *
   9 C       3.3655870 *  3.3655870 *  3.3562187 *  0.0000000    4.5214469  
  10 O       4.0737812    4.0737812    1.1652282 *  4.5214469    0.0000000  
  11 O       4.0737812    4.0737812    4.5214469    1.1652282 *  5.6866750  

               11 O     

   1 FE      2.8433375 *
   2 C       3.3465506 *
   3 C       3.3465506 *
   4 C       3.3465506 *
   5 O       4.0737812  
   6 O       4.0737812  
   7 O       4.0737812  
   8 C       4.5214469  
   9 C       1.1652282 *
  10 O       5.6866750  
  11 O       0.0000000  

  * ... TRANSFORMED ATOM PAIR (LESS THAN   3.500 ANGS.)

 TIME TO DO  RELATIVISTIC INTS=      0.82
 TIME TO DO   DIPOLE INTEGRALS=      0.05
 ...... END OF ONE-ELECTRON INTEGRALS ......
 CPU     0: STEP CPU TIME=     0.89 TOTAL CPU TIME=          2.3 (      0.0 MIN)
 TOTAL WALL CLOCK TIME=          3.3 SECONDS, CPU UTILIZATION IS    71.56%

          -------------
          GUESS OPTIONS
          -------------
          GUESS =MOREAD            NORB  =     369          NORDER=       1
          MIX   =       F          PRTMO =       F          PUNMO =       F
          TOLZ  = 1.0E-08          TOLE  = 1.0E-05
          SYMDEN=       F          PURIFY=       T

 INITIAL GUESS ORBITALS GENERATED BY MOREAD   ROUTINE.

 STATISTICS FOR GENERATION OF SYMMETRY ORBITAL -Q- MATRIX
 NUMBER OF CARTESIAN ATOMIC ORBITALS=        435
 NUMBER OF SPHERICAL CONTAMINANTS DROPPED=    66
 NUMBER OF LINEARLY DEPENDENT MOS DROPPED=     0
 TOTAL NUMBER OF MOS IN VARIATION SPACE=     369
 ORBITAL PURIFICATION WILL OCCUR

 SYMMETRIES FOR INITIAL GUESS ORBITALS FOLLOW.   BOTH SET(S).
    48 ORBITALS ARE OCCUPIED (   19 CORE ORBITALS).
     1=A        2=A        3=A        4=A        5=A        6=A        7=A   
     8=A        9=A       10=A       11=A       12=A       13=A       14=A   
    15=A       16=A       17=A       18=A       19=A       20=A       21=A   
    22=A       23=A       24=A       25=A       26=A       27=A       28=A   
    29=A       30=A       31=A       32=A       33=A       34=A       35=A   
    36=A       37=A       38=A       39=A       40=A       41=A       42=A   
    43=A       44=A       45=A       46=A       47=A       48=A       49=A   
    50=A       51=A       52=A       53=A       54=A       55=A       56=A   
    57=A       58=A       59=A       60=A       61=A       62=A       63=A   
    64=A       65=A       66=A       67=A       68=A       69=A       70=A   
    71=A       72=A       73=A       74=A       75=A       76=A       77=A   
    78=A       79=A       80=A       81=A       82=A       83=A       84=A   
    85=A       86=A       87=A       88=A       89=A       90=A       91=A   
    92=A       93=A       94=A       95=A       96=A       97=A       98=A   
    99=A      100=A      101=A      102=A      103=A      104=A      105=A   
   106=A      107=A      108=A      109=A      110=A      111=A      112=A   
   113=A      114=A      115=A      116=A      117=A      118=A      119=A   
   120=A      121=A      122=A      123=A      124=A      125=A      126=A   
   127=A      128=A      129=A      130=A      131=A      132=A      133=A   
   134=A      135=A      136=A      137=A      138=A      139=A      140=A   
   141=A      142=A      143=A      144=A      145=A      146=A      147=A   
   148=A      149=A      150=A      151=A      152=A      153=A      154=A   
   155=A      156=A      157=A      158=A      159=A      160=A      161=A   
   162=A      163=A      164=A      165=A      166=A      167=A      168=A   
   169=A      170=A      171=A      172=A      173=A      174=A      175=A   
   176=A      177=A      178=A      179=A      180=A      181=A      182=A   
   183=A      184=A      185=A      186=A      187=A      188=A      189=A   
   190=A      191=A      192=A      193=A      194=A      195=A      196=A   
   197=A      198=A      199=A      200=A      201=A      202=A      203=A   
   204=A      205=A      206=A      207=A      208=A      209=A      210=A   
   211=A      212=A      213=A      214=A      215=A      216=A      217=A   
   218=A      219=A      220=A      221=A      222=A      223=A      224=A   
   225=A      226=A      227=A      228=A      229=A      230=A      231=A   
   232=A      233=A      234=A      235=A      236=A      237=A      238=A   
   239=A      240=A      241=A      242=A      243=A      244=A      245=A   
   246=A      247=A      248=A      249=A      250=A      251=A      252=A   
   253=A      254=A      255=A      256=A      257=A      258=A      259=A   
   260=A      261=A      262=A      263=A      264=A      265=A      266=A   
   267=A      268=A      269=A      270=A      271=A      272=A      273=A   
   274=A      275=A      276=A      277=A      278=A      279=A      280=A   
   281=A      282=A      283=A      284=A      285=A      286=A      287=A   
   288=A      289=A      290=A      291=A      292=A      293=A      294=A   
   295=A      296=A      297=A      298=A      299=A      300=A      301=A   
   302=A      303=A      304=A      305=A      306=A      307=A      308=A   
   309=A      310=A      311=A      312=A      313=A      314=A      315=A   
   316=A      317=A      318=A      319=A      320=A      321=A      322=A   
   323=A      324=A      325=A      326=A      327=A      328=A      329=A   
   330=A      331=A      332=A      333=A      334=A      335=A      336=A   
   337=A      338=A      339=A      340=A      341=A      342=A      343=A   
   344=A      345=A      346=A      347=A      348=A      349=A      350=A   
   351=A      352=A      353=A      354=A      355=A      356=A      357=A   
   358=A      359=A      360=A      361=A      362=A      363=A      364=A   
   365=A      366=A      367=A      368=A      369=A   
 ...... END OF INITIAL ORBITAL SELECTION ......
 CPU     0: STEP CPU TIME=     4.10 TOTAL CPU TIME=          6.4 (      0.1 MIN)
 TOTAL WALL CLOCK TIME=          7.6 SECONDS, CPU UTILIZATION IS    84.85%

                    ----------------------
                    AO INTEGRAL TECHNOLOGY
                    ----------------------
     S,P,L SHELL ROTATED AXIS INTEGRALS, REPROGRAMMED BY
        KAZUYA ISHIMURA (IMS) AND JOSE SIERRA (SYNSTAR).
     S,P,D,L SHELL ROTATED AXIS INTEGRALS PROGRAMMED BY
        KAZUYA ISHIMURA (INSTITUTE FOR MOLECULAR SCIENCE).
     S,P,D,F,G SHELL TO TOTAL QUARTET ANGULAR MOMENTUM SUM 5,
        ERIC PROGRAM BY GRAHAM FLETCHER (ELORET AND NASA ADVANCED
        SUPERCOMPUTING DIVISION, AMES RESEARCH CENTER).
     S,P,D,F,G,L SHELL GENERAL RYS QUADRATURE PROGRAMMED BY
        MICHEL DUPUIS (PACIFIC NORTHWEST NATIONAL LABORATORY).

          --------------------
          2 ELECTRON INTEGRALS
          --------------------

 DIRECT SCF METHOD SKIPS INTEGRAL STORAGE ON DISK.
 DIRECT TRANSFORMATION SKIPS AO INTEGRAL STORAGE ON DISK.
  ...... END OF TWO-ELECTRON INTEGRALS .....
 STEP CPU TIME =     0.01 TOTAL CPU TIME =          6.5 (      0.1 MIN)
 TOTAL WALL CLOCK TIME=          7.6 SECONDS, CPU UTILIZATION IS    84.98%
 DDI: Creating Array [0] - 189225 x 1326 = 250912350 words.
 DDI: Creating Array [1] - 318 x 67626 = 21505068 words.
 DDI: Creating Array [2] - 1326 x 1326 = 1758276 words.
 DDI: Creating Array [3] - 94830 x 1326 = 125744580 words.

          -----------------
          MCSCF CALCULATION
          -----------------

 ----- NUCLEAR ENERGY ----- =       825.5537622493

     -------------------------------------------------
     GMC-PT/GMC-QDPT or general MCSCF input parameters
     -------------------------------------------------
 # of frozen core orbs. =        19 ->         0
 # of doubly occ. orbs. =        24
 # of active      orbs. =         8
 # of virtual     orbs. =       318
 # of active electrons  =        10
 # of states in CI      =         1
 Highest state in CI    =         1
 kstate =  1
 avecoe =  1.000
 State symmetry           = A           
 Assigned symmetry number = 1

 <<<Act. MO sym.: 11111111

 <<<Division of 1-ext.:  0 0 0 0 0 0 0 0 0 0
 <<<Division of 2-ext.:  0 1 2 3 4 5 6 7 8 9

 *** Reference space

 Reference type: ORMAS (= Occupation restricted multiple active space)
 # of orbitals          =  8
 # of minimum electrons = 10
 # of maximum electrons = 10
 State symmetry    =    1 (input)
 2*Sz              =    0 (input)
 Spin multiplicity =    1 (input)
 Dimension of reference space =      3136  (from      8008 walks)

 Dimension of reference space =      3136  (from      3136 walks)

 <<<Ionized spaces for Ref-CI:
      0:         3136 /   -1-0:         7840 /  0-1-0:         7056

 EVALUATING EXCHANGE INTEGRALS FOR DIRECT INTEGRAL TRANSFORMATION
 SCHWARZ INEQUALITY OVERHEAD:     90407 INTEGRALS, T=        0.03

     --------------------------------------------
     PARTIAL TWO ELECTRON INTEGRAL TRANSFORMATION
     --------------------------------------------

 NUMBER OF CORE MOLECULAR ORBITALS     =   43
 NUMBER OF OCCUPIED MOLECULAR ORBITALS =   51
 TOTAL NUMBER OF MOLECULAR ORBITALS    =  369
 TOTAL NUMBER OF ATOMIC ORBITALS       =  435
 THRESHOLD FOR KEEPING TRANSFORMED 2E- INTEGRALS = 1.000E-09

 -------------------------------     ------------------------------
 DISTRIBUTED DATA TRANSFORMATION     PROGRAM WRITTEN BY G. FLETCHER
 -------------------------------     ------------------------------

 THE DISTRIBUTED MEMORY REQUIRED FOR THIS STEP IS MEMDDI=       400 MWORDS
 CREATING DISTRIBUTED STORAGE FOR [VIR OCC|VIR OCC] INTEGRALS
 CREATING DISTRIBUTED STORAGE FOR [VIR OCC|OCC OCC] INTEGRALS
 CREATING DISTRIBUTED STORAGE FOR [OCC OCC|OCC OCC] INTEGRALS
 CREATING DISTRIBUTED STORAGE FOR [VIR VIR|OCC OCC] INTEGRALS
 FOR   10 PROCESSORS, THE REPLICATED MEMORY NEEDED IS    11733063 WORDS.
 SCHWARZ INEQUALITY OVERHEAD:     90407 INTEGRALS, T=        0.04

      DIRECT 4-INDEX TRANSFORMATION 
      SCHWARZ INEQUALITY TEST SKIPPED   18211824 INTEGRAL BLOCKS
 ----- FROZEN CORE ENERGY =     -2633.7372844949
 ... END OF INTEGRAL TRANSFORMATION ...
 CPU     0: STEP CPU TIME=   206.69 TOTAL CPU TIME=        213.1 (      3.6 MIN)
 TOTAL WALL CLOCK TIME=        215.0 SECONDS, CPU UTILIZATION IS    99.16%

     --------------------------------     -----------------------------
     MCHF NEWTON-RAPHSON OPTIMIZATION     CODE WRITTEN BY MICHEL DUPUIS
     --------------------------------     -----------------------------
     PARALLEL VERSION WRITTEN BY G. FLETCHER (ELORET)
     NASA ADVANCED SUPERCOMPUTING DIVISION, AMES RESEARCH CENTER

 NUMBER OF INDEPENDENT ORBITAL ROTATION PARAMETERS =  8289
 ..... DONE SOLVING NEWTON-RAPHSON EQUATIONS .....
 CPU     0: STEP CPU TIME=   128.30 TOTAL CPU TIME=        341.4 (      5.7 MIN)
 TOTAL WALL CLOCK TIME=        355.5 SECONDS, CPU UTILIZATION IS    96.06%
 ..... DONE WITH NTN-RPH ORBITAL ROTATIONS ..... 
 CPU     0: STEP CPU TIME=     0.15 TOTAL CPU TIME=        341.6 (      5.7 MIN)
 TOTAL WALL CLOCK TIME=        355.7 SECONDS, CPU UTILIZATION IS    96.04%
 MAXIMUM MEMORY USED BY NTN-RPH CODE WAS   1992646 WORDS.

 ITER     TOTAL ENERGY      DEL(E)  LAGRANGIAN ASYMMETRY   SQCDF  MICIT   DAMP
   1    -1835.394750465 -0.394750465  0.065309   49   16 3.837E-02  1   0.0000
   2    -1835.402845789 -0.008095324  0.008494   53   46 5.427E-03  1   0.0000
   3    -1835.403313269 -0.000467481  0.006445   53   46 7.745E-05  1   0.0000
   4    -1835.403490112 -0.000176843  0.004793   53   46 2.838E-05  1   0.0000
   5    -1835.403587436 -0.000097324  0.003567   53   46 1.797E-05  1   0.0000
   6    -1835.403642037 -0.000054601  0.002658   54   45 1.044E-05  1   0.0000
   7    -1835.403672613 -0.000030577  0.001982   53   46 5.896E-06  1   0.0000
   8    -1835.403689688 -0.000017075  0.001477   53   46 3.293E-06  1   0.0000
   9    -1835.403699201 -0.000009513  0.001101   53   46 1.831E-06  1   0.0000
  10    -1835.403704491 -0.000005291  0.000820   54   45 1.016E-06  1   0.0000
  11    -1835.403707430 -0.000002939  0.000610   54   45 5.634E-07  1   0.0000
  12    -1835.403709061 -0.000001631  0.000454   54   45 3.122E-07  1   0.0000
  13    -1835.403709965 -0.000000904  0.000338   53   46 1.729E-07  1   0.0000
  14    -1835.403710466 -0.000000501  0.000252   53   46 9.572E-08  1   0.0000
  15    -1835.403710743 -0.000000278  0.000187   54   45 5.302E-08  1   0.0000
  16    -1835.403710897 -0.000000154  0.000139   53   46 2.935E-08  1   0.0000
  17    -1835.403710982 -0.000000085  0.000104   54   45 1.623E-08  1   0.0000
  18    -1835.403711029 -0.000000047  0.000077   53   46 8.990E-09  1   0.0000
  19    -1835.403711055 -0.000000026  0.000057   54   45 4.975E-09  1   0.0000
  20    -1835.403711070 -0.000000014  0.000043   53   46 2.750E-09  1   0.0000
  21    -1835.403711078 -0.000000008  0.000032   54   45 1.524E-09  1   0.0000
  22    -1835.403711082 -0.000000004  0.000024   54   45 8.434E-10  1   0.0000
  23    -1835.403711085 -0.000000002  0.000018   54   45 4.672E-10  1   0.0000
  24    -1835.403711086 -0.000000001  0.000013   54   45 2.592E-10  1   0.0000
  25    -1835.403711087 -0.000000001  0.000010   54   45 1.427E-10  1   0.0000
  26    -1835.403711087 -0.000000000  0.000007   54   45 7.952E-11  1   0.0000
  27    -1835.403711087 -0.000000000  0.000005   53   46 4.462E-11  1   0.0000
  28    -1835.403711087 -0.000000000  0.000004   54   45 2.328E-11  1   0.0000
  29    -1835.403711087 -0.000000000  0.000003   54   45 1.521E-11  1   0.0000
  30    -1835.403711088 -0.000000000  0.000002   54   45 7.360E-12  1   0.0000

          ---------------
          SQCDF CONVERGED (BUT THE LAGRANGIAN MATRIX IS NOT ENTIRELY SYMMETRIC)
          ---------------

 FINAL MCSCF ENERGY IS    -1835.4037110875 AFTER  30 ITERATIONS

 -MCCI- BASED ON OPTIMIZED ORBITALS
 ----------------------------------

 PLEASE NOTE: IF THE ACTIVE ORBITALS ARE CANONICALIZED BELOW,
 THE FOLLOWING CI EXPANSION COEFFICIENTS AND THE DENSITY DO NOT
 CORRESPOND TO THE PRINTED ORBITALS.  THE PRINTED EXPANSIONS MATCH
 THE ORBITALS USED DURING THE LAST ITERATION.  IF YOU WISH TO SEE
 CI EXPANSIONS BASED ON THE CANONICAL (OR NATURAL) ORBITALS, YOU
 MUST RUN A CI CALCULATION WITH THAT ORBITAL CHOICE READ IN $VEC.

 State #    1  Energy =   -1835.403711088  S =  0.000

      Det      Coef    Occupancy (Ignoring core)
      ---      ----    --------- --------- -----
        1    0.951671  1111100011111000
       37    0.067841  1110001111111000
      286   -0.051521  0111110001111100
      287    0.055219  1111001001111100
      303   -0.055219  1110100101111100
      342    0.055219  0111110011110010
      343   -0.126782  1111001011110010
      359    0.089813  1110100111110010
     1238   -0.055219  0111110011101001
     1239    0.089813  1111001011101001
     1255   -0.126782  1110100111101001
     2017    0.067841  1111100011100011

 DENSITY MATRIX OVER ACTIVE MO-S

             1           2           3           4           5

    1    1.9665782
    2   -0.0000000   1.9976215
    3    0.0000000  -0.0000000   1.9976215
    4   -0.0000000   0.0000000   0.0000000   1.9192295
    5    0.0000000   0.0000000   0.0000000  -0.0000000   1.9192295
    6   -0.0718057  -0.0000000   0.0000000   0.0000000  -0.0000000
    7   -0.0000000  -0.0000000  -0.0000000   0.0000721   0.0010550
    8   -0.0000000   0.0000000   0.0000000   0.0010550  -0.0000721

             6           7           8

    6    0.0380040
    7    0.0000000   0.0808580
    8    0.0000000   0.0000000   0.0808580

 FORMING THE "STANDARD FOCK OPERATOR" IN DIRECT AO INTEGRAL MODE...
 ONLY THE   43 CORE AND  318 VIRTUAL ORBITALS WILL BE CANONICALIZED

          ----------------------
          MCSCF NATURAL ORBITALS
          ----------------------

                      1          2          3          4          5
                 -263.6844   -32.4759   -27.5478   -27.5397   -27.5397
                     A          A          A          A          A   
    1  FE 1  S    0.997431  -0.320564  -0.000000  -0.000000  -0.000000
    2  FE 1  S    0.011940   1.048467  -0.000000  -0.000000   0.000000
    3  FE 1  S    0.003445   0.027342   0.000000  -0.000000  -0.000000
    4  FE 1  S   -0.007251  -0.014368   0.000000   0.000000   0.000000
    5  FE 1  S    0.002261   0.004817  -0.000000   0.000000  -0.000000
    6  FE 1  S   -0.003509  -0.011076  -0.000000   0.000000   0.000000
    7  FE 1  S    0.000697   0.001146   0.000000  -0.000000  -0.000000
    8  FE 1  S   -0.000079  -0.000237   0.000000  -0.000000  -0.000000
    9  FE 1  X   -0.000000  -0.000000  -0.000000   0.062882   0.995506
   10  FE 1  Y   -0.000000  -0.000000  -0.000000   0.995506  -0.062882
   11  FE 1  Z   -0.000000  -0.000000   0.997530   0.000000   0.000000
   12  FE 1  X   -0.000000   0.000000  -0.000000   0.000024   0.000382
   13  FE 1  Y   -0.000000   0.000000  -0.000000   0.000382  -0.000024
   14  FE 1  Z   -0.000000  -0.000000   0.000417  -0.000000  -0.000000
   15  FE 1  X    0.000000  -0.000000  -0.000000   0.000581   0.009199
   16  FE 1  Y    0.000000  -0.000000  -0.000000   0.009199  -0.000581
   17  FE 1  Z    0.000000   0.000000   0.008976   0.000000   0.000000
   18  FE 1  X   -0.000000   0.000000   0.000000  -0.000173  -0.002745
   19  FE 1  Y   -0.000000   0.000000  -0.000000  -0.002745   0.000173
   20  FE 1  Z   -0.000000  -0.000000  -0.002684  -0.000000  -0.000000
   21  FE 1  X    0.000000  -0.000000  -0.000000   0.000098   0.001544
   22  FE 1  Y    0.000000  -0.000000   0.000000   0.001544  -0.000098
   23  FE 1  Z    0.000000   0.000000   0.001580  -0.000000   0.000000
   24  FE 1  X   -0.000000  -0.000000  -0.000000   0.000064   0.001019
   25  FE 1  Y   -0.000000   0.000000   0.000000   0.001019  -0.000064
   26  FE 1  Z    0.000000  -0.000000   0.000669   0.000000  -0.000000
   27  FE 1 XX    0.000002  -0.000691  -0.000000  -0.000002  -0.000038
   28  FE 1 YY    0.000002  -0.000691  -0.000000   0.000002   0.000038
   29  FE 1 ZZ   -0.000005   0.001383   0.000000  -0.000000   0.000000
   30  FE 1 XY   -0.000000  -0.000000  -0.000000   0.000044  -0.000003
   31  FE 1 XZ   -0.000000   0.000000   0.000000  -0.000000  -0.000000
   32  FE 1 YZ   -0.000000  -0.000000   0.000000  -0.000000  -0.000000
   33  FE 1 XX   -0.000017   0.000136  -0.000000   0.000010   0.000155
   34  FE 1 YY   -0.000017   0.000136  -0.000000  -0.000010  -0.000155
   35  FE 1 ZZ    0.000035  -0.000272   0.000000  -0.000000  -0.000000
   36  FE 1 XY    0.000000  -0.000000  -0.000000  -0.000179   0.000011
   37  FE 1 XZ   -0.000000  -0.000000   0.000000  -0.000000  -0.000000
   38  FE 1 YZ   -0.000000  -0.000000  -0.000000  -0.000000  -0.000000
   39  FE 1 XX    0.000134   0.000381   0.000000  -0.000025  -0.000396
   40  FE 1 YY    0.000134   0.000381   0.000000   0.000025   0.000396
   41  FE 1 ZZ   -0.000269  -0.000763  -0.000000   0.000000   0.000000
   42  FE 1 XY   -0.000000   0.000000   0.000000   0.000458  -0.000029
   43  FE 1 XZ    0.000000   0.000000  -0.000000  -0.000000   0.000000
   44  FE 1 YZ   -0.000000  -0.000000   0.000000   0.000000  -0.000000
   45  FE 1 XX   -0.000048  -0.000097  -0.000000   0.000051   0.000805
   46  FE 1 YY   -0.000048  -0.000097  -0.000000  -0.000051  -0.000805
   47  FE 1 ZZ    0.000096   0.000193   0.000000  -0.000000  -0.000000
   48  FE 1 XY    0.000000  -0.000000  -0.000000  -0.000930   0.000059
   49  FE 1 XZ   -0.000000  -0.000000   0.000000   0.000000  -0.000000
   50  FE 1 YZ   -0.000000  -0.000000  -0.000000  -0.000000   0.000000
   51  FE 1 XXX   0.000016   0.000083  -0.000000  -0.000015  -0.000239
   52  FE 1 YYY  -0.000000  -0.000000  -0.000000  -0.000239   0.000015
   53  FE 1 ZZZ  -0.000000  -0.000000  -0.000488  -0.000000  -0.000000
   54  FE 1 XXY  -0.000000  -0.000000  -0.000000  -0.000107   0.000007
   55  FE 1 XXZ  -0.000000  -0.000000   0.000328  -0.000000  -0.000000
   56  FE 1 YYX  -0.000021  -0.000111  -0.000000  -0.000007  -0.000107
   57  FE 1 YYZ  -0.000000  -0.000000   0.000328  -0.000000  -0.000000
   58  FE 1 ZZX  -0.000000  -0.000000  -0.000000   0.000027   0.000427
   59  FE 1 ZZY  -0.000000  -0.000000  -0.000000   0.000427  -0.000027
   60  FE 1 XYZ  -0.000000  -0.000000  -0.000000  -0.000000  -0.000000
   61  FE 1 XXX  -0.000113  -0.000477  -0.000000   0.000004   0.000070
   62  FE 1 YYY  -0.000000  -0.000000  -0.000000   0.000070  -0.000004
   63  FE 1 ZZZ  -0.000000  -0.000000   0.000056   0.000000   0.000000
   64  FE 1 XXY  -0.000000  -0.000000  -0.000000   0.000031  -0.000002
   65  FE 1 XXZ   0.000000   0.000000  -0.000038  -0.000000  -0.000000
   66  FE 1 YYX   0.000151   0.000640  -0.000000   0.000002   0.000031
   67  FE 1 YYZ  -0.000000  -0.000000  -0.000038  -0.000000  -0.000000
   68  FE 1 ZZX  -0.000000   0.000000   0.000000  -0.000008  -0.000126
   69  FE 1 ZZY  -0.000000   0.000000  -0.000000  -0.000126   0.000008
   70  FE 1 XYZ  -0.000000  -0.000000  -0.000000  -0.000000  -0.000000
   71  FE 1XXXX  -0.000018  -0.000113  -0.000000   0.000001   0.000008
   72  FE 1YYYY  -0.000018  -0.000113  -0.000000   0.000000   0.000003
   73  FE 1ZZZZ  -0.000047  -0.000302  -0.000000  -0.000000  -0.000000
   74  FE 1XXXY  -0.000000  -0.000000  -0.000000   0.000006  -0.000000
   75  FE 1XXXZ  -0.000000  -0.000000   0.000001  -0.000000  -0.000000
   76  FE 1YYYX  -0.000000  -0.000000  -0.000000  -0.000010   0.000001
   77  FE 1YYYZ  -0.000000  -0.000000  -0.000000  -0.000000  -0.000000
   78  FE 1ZZZX  -0.000000  -0.000000  -0.000000  -0.000000  -0.000000
   79  FE 1ZZZY  -0.000000  -0.000000  -0.000000  -0.000000  -0.000000
   80  FE 1XXYY  -0.000010  -0.000066  -0.000000  -0.000001  -0.000010
   81  FE 1XXZZ   0.000042   0.000266  -0.000000  -0.000000  -0.000005
   82  FE 1YYZZ   0.000042   0.000266  -0.000000   0.000000   0.000005
   83  FE 1XXYZ  -0.000000  -0.000000  -0.000000  -0.000000  -0.000000
   84  FE 1YYXZ  -0.000000  -0.000000  -0.000001  -0.000000   0.000000
   85  FE 1ZZXY  -0.000000  -0.000000  -0.000000   0.000006  -0.000000
   86  C  2  S   -0.000030   0.000025   0.000000   0.000009  -0.000006
   87  C  2  S   -0.000194  -0.000906   0.000000   0.000089  -0.000059
   88  C  2  S    0.000532   0.001311  -0.000000  -0.000464   0.000309
   89  C  2  S    0.000036  -0.000039  -0.000000  -0.000525   0.000349
   90  C  2  X   -0.000015  -0.000166  -0.000000  -0.000001   0.000002
   91  C  2  Y    0.000025   0.000288  -0.000000   0.000003  -0.000001
   92  C  2  Z   -0.000000  -0.000000   0.000005  -0.000000  -0.000000
   93  C  2  X    0.000112   0.000392   0.000000  -0.000028   0.000037
   94  C  2  Y   -0.000194  -0.000680  -0.000000   0.000068  -0.000035
   95  C  2  Z   -0.000000  -0.000000   0.000005   0.000000   0.000000
   96  C  2  X   -0.000106  -0.000366  -0.000000  -0.000355   0.000293
   97  C  2  Y    0.000184   0.000635   0.000000   0.000676  -0.000416
   98  C  2  Z   -0.000000  -0.000000   0.000043   0.000000  -0.000000
   99  C  2 XX    0.000002   0.000001   0.000000  -0.000001  -0.000001
  100  C  2 YY   -0.000005  -0.000018  -0.000000   0.000003  -0.000000
  101  C  2 ZZ    0.000004   0.000017  -0.000000  -0.000002   0.000001
  102  C  2 XY    0.000007   0.000020   0.000000  -0.000002   0.000002
  103  C  2 XZ   -0.000000  -0.000000  -0.000001  -0.000000  -0.000000
  104  C  2 YZ   -0.000000  -0.000000   0.000001  -0.000000  -0.000000
  105  C  2 XX   -0.000026  -0.000087   0.000000   0.000038   0.000003
  106  C  2 YY    0.000142   0.000440  -0.000000  -0.000109   0.000045
  107  C  2 ZZ   -0.000116  -0.000353   0.000000   0.000072  -0.000048
  108  C  2 XY   -0.000168  -0.000526   0.000000   0.000113  -0.000093
  109  C  2 XZ   -0.000000  -0.000000  -0.000023   0.000000  -0.000000
  110  C  2 YZ   -0.000000   0.000000   0.000040  -0.000000   0.000000
  111  C  2 XXX  -0.000037  -0.000167  -0.000000  -0.000035   0.000023
  112  C  2 YYY  -0.000028  -0.000118  -0.000000  -0.000023   0.000014
  113  C  2 ZZZ  -0.000000   0.000000  -0.000009  -0.000000  -0.000000
  114  C  2 XXY  -0.000013  -0.000053  -0.000000  -0.000009   0.000008
  115  C  2 XXZ  -0.000000  -0.000000   0.000001   0.000000   0.000000
  116  C  2 YYX   0.000079   0.000347   0.000000   0.000070  -0.000047
  117  C  2 YYZ  -0.000000  -0.000000   0.000012  -0.000000  -0.000000
  118  C  2 ZZX  -0.000029  -0.000122  -0.000000  -0.000023   0.000016
  119  C  2 ZZY   0.000050   0.000211   0.000000   0.000041  -0.000027
  120  C  2 XYZ  -0.000000  -0.000000  -0.000011  -0.000000  -0.000000
  121  C  3  S   -0.000030   0.000025  -0.000000  -0.000009  -0.000005
  122  C  3  S   -0.000194  -0.000906   0.000000  -0.000096  -0.000047
  123  C  3  S    0.000532   0.001311  -0.000000   0.000500   0.000248
  124  C  3  S    0.000036  -0.000039   0.000000   0.000564   0.000280
  125  C  3  X   -0.000015  -0.000166  -0.000000   0.000001   0.000002
  126  C  3  Y   -0.000025  -0.000288  -0.000000   0.000003   0.000001
  127  C  3  Z   -0.000000  -0.000000   0.000005   0.000000  -0.000000
  128  C  3  X    0.000112   0.000392  -0.000000   0.000032   0.000033
  129  C  3  Y    0.000194   0.000680  -0.000000   0.000072   0.000026
  130  C  3  Z   -0.000000  -0.000000   0.000005  -0.000000   0.000000
  131  C  3  X   -0.000106  -0.000366   0.000000   0.000389   0.000246
  132  C  3  Y   -0.000184  -0.000635   0.000000   0.000723   0.000328
  133  C  3  Z   -0.000000  -0.000000   0.000043   0.000000  -0.000000
  134  C  3 XX    0.000002   0.000001  -0.000000   0.000001  -0.000001
  135  C  3 YY   -0.000005  -0.000018  -0.000000  -0.000003   0.000000
  136  C  3 ZZ    0.000004   0.000017  -0.000000   0.000002   0.000001
  137  C  3 XY   -0.000007  -0.000020  -0.000000  -0.000002  -0.000002
  138  C  3 XZ   -0.000000  -0.000000  -0.000001  -0.000000  -0.000000
  139  C  3 YZ   -0.000000   0.000000  -0.000001  -0.000000  -0.000000
  140  C  3 XX   -0.000026  -0.000087  -0.000000  -0.000037   0.000007
  141  C  3 YY    0.000142   0.000440  -0.000000   0.000114   0.000031
  142  C  3 ZZ   -0.000116  -0.000353   0.000000  -0.000077  -0.000038
  143  C  3 XY    0.000168   0.000526  -0.000000   0.000124   0.000078
  144  C  3 XZ   -0.000000  -0.000000  -0.000023  -0.000000  -0.000000
  145  C  3 YZ   -0.000000  -0.000000  -0.000040  -0.000000   0.000000
  146  C  3 XXX  -0.000037  -0.000167   0.000000   0.000037   0.000019
  147  C  3 YYY   0.000028   0.000118  -0.000000  -0.000025  -0.000011
  148  C  3 ZZZ  -0.000000  -0.000000  -0.000009  -0.000000  -0.000000
  149  C  3 XXY   0.000013   0.000053  -0.000000  -0.000010  -0.000007
  150  C  3 XXZ  -0.000000  -0.000000   0.000001  -0.000000   0.000000
  151  C  3 YYX   0.000079   0.000347  -0.000000  -0.000075  -0.000037
  152  C  3 YYZ  -0.000000  -0.000000   0.000012   0.000000  -0.000000
  153  C  3 ZZX  -0.000029  -0.000122  -0.000000   0.000025   0.000013
  154  C  3 ZZY  -0.000050  -0.000211  -0.000000   0.000044   0.000022
  155  C  3 XYZ  -0.000000  -0.000000   0.000011  -0.000000  -0.000000
  156  C  4  S   -0.000030   0.000025  -0.000000   0.000001   0.000010
  157  C  4  S   -0.000194  -0.000906  -0.000000   0.000007   0.000106
  158  C  4  S    0.000532   0.001311   0.000000  -0.000035  -0.000557
  159  C  4  S    0.000036  -0.000039  -0.000000  -0.000040  -0.000629
  160  C  4  X    0.000029   0.000332   0.000000   0.000000   0.000004
  161  C  4  Y   -0.000000  -0.000000  -0.000000   0.000001  -0.000000
  162  C  4  Z   -0.000000  -0.000000   0.000005  -0.000000  -0.000000
  163  C  4  X   -0.000224  -0.000785  -0.000000   0.000006   0.000088
  164  C  4  Y   -0.000000  -0.000000  -0.000000   0.000018  -0.000001
  165  C  4  Z   -0.000000   0.000000   0.000005  -0.000000  -0.000000
  166  C  4  X    0.000212   0.000733   0.000000   0.000058   0.000914
  167  C  4  Y    0.000000  -0.000000  -0.000000   0.000055  -0.000003
  168  C  4  Z   -0.000000  -0.000000   0.000043   0.000000   0.000000
  169  C  4 XX   -0.000009  -0.000028  -0.000000   0.000000   0.000004
  170  C  4 YY    0.000005   0.000011   0.000000  -0.000000  -0.000002
  171  C  4 ZZ    0.000004   0.000017  -0.000000  -0.000000  -0.000002
  172  C  4 XY   -0.000000  -0.000000  -0.000000   0.000002  -0.000000
  173  C  4 XZ   -0.000000  -0.000000   0.000001  -0.000000   0.000000
  174  C  4 YZ   -0.000000  -0.000000  -0.000000  -0.000000  -0.000000
  175  C  4 XX    0.000226   0.000703   0.000000  -0.000012  -0.000188
  176  C  4 YY   -0.000110  -0.000350  -0.000000   0.000006   0.000103
  177  C  4 ZZ   -0.000116  -0.000353  -0.000000   0.000005   0.000086
  178  C  4 XY    0.000000  -0.000000  -0.000000  -0.000030   0.000002
  179  C  4 XZ   -0.000000  -0.000000   0.000046  -0.000000  -0.000000
  180  C  4 YZ   -0.000000  -0.000000  -0.000000   0.000000  -0.000000
  181  C  4 XXX  -0.000086  -0.000372  -0.000000  -0.000006  -0.000089
  182  C  4 YYY  -0.000000  -0.000000  -0.000000   0.000001  -0.000000
  183  C  4 ZZZ  -0.000000   0.000000  -0.000009  -0.000000  -0.000000
  184  C  4 XXY  -0.000000  -0.000000  -0.000000  -0.000002   0.000000
  185  C  4 XXZ  -0.000000  -0.000000   0.000018  -0.000000   0.000000
  186  C  4 YYX   0.000057   0.000255  -0.000000   0.000004   0.000063
  187  C  4 YYZ  -0.000000  -0.000000  -0.000005  -0.000000  -0.000000
  188  C  4 ZZX   0.000058   0.000244   0.000000   0.000004   0.000056
  189  C  4 ZZY  -0.000000   0.000000  -0.000000   0.000000  -0.000000
  190  C  4 XYZ  -0.000000  -0.000000  -0.000000  -0.000000  -0.000000
  191  O  5  S   -0.000000  -0.000021  -0.000000  -0.000002   0.000001
  192  O  5  S    0.000017   0.000087  -0.000000   0.000002  -0.000001
  193  O  5  S    0.000006   0.000269   0.000000   0.000249  -0.000166
  194  O  5  S   -0.000368  -0.001126   0.000000  -0.000500   0.000332
  195  O  5  X   -0.000001   0.000029  -0.000000   0.000001   0.000002
  196  O  5  Y    0.000002  -0.000050   0.000000   0.000002   0.000000
  197  O  5  Z   -0.000000  -0.000000   0.000001  -0.000000   0.000000
  198  O  5  X    0.000030   0.000197   0.000000   0.000035  -0.000007
  199  O  5  Y   -0.000051  -0.000341  -0.000000  -0.000043   0.000038
  200  O  5  Z   -0.000000  -0.000000  -0.000020  -0.000000  -0.000000
  201  O  5  X   -0.000053  -0.000116   0.000000  -0.000052   0.000028
  202  O  5  Y    0.000092   0.000202  -0.000000   0.000083  -0.000059
  203  O  5  Z    0.000000  -0.000000  -0.000037   0.000000  -0.000000
  204  O  5 XX   -0.000001  -0.000006  -0.000000  -0.000001   0.000001
  205  O  5 YY    0.000006   0.000028  -0.000000   0.000007  -0.000005
  206  O  5 ZZ   -0.000005  -0.000022  -0.000000  -0.000006   0.000004
  207  O  5 XY   -0.000007  -0.000035  -0.000000  -0.000008   0.000005
  208  O  5 XZ   -0.000000  -0.000000   0.000001  -0.000000  -0.000000
  209  O  5 YZ   -0.000000  -0.000000  -0.000002  -0.000000   0.000000
  210  O  5 XX   -0.000004  -0.000018  -0.000000  -0.000001  -0.000002
  211  O  5 YY    0.000020   0.000088   0.000000  -0.000011   0.000010
  212  O  5 ZZ   -0.000016  -0.000070  -0.000000   0.000012  -0.000008
  213  O  5 XY   -0.000024  -0.000106  -0.000000   0.000013  -0.000007
  214  O  5 XZ   -0.000000  -0.000000  -0.000011  -0.000000  -0.000000
  215  O  5 YZ   -0.000000  -0.000000   0.000020  -0.000000  -0.000000
  216  O  5 XXX  -0.000007  -0.000025  -0.000000  -0.000001   0.000001
  217  O  5 YYY  -0.000005  -0.000018  -0.000000   0.000000  -0.000001
  218  O  5 ZZZ  -0.000000  -0.000000   0.000002  -0.000000   0.000000
  219  O  5 XXY  -0.000002  -0.000008  -0.000000   0.000001   0.000001
  220  O  5 XXZ  -0.000000  -0.000000  -0.000000  -0.000000  -0.000000
  221  O  5 YYX   0.000014   0.000052  -0.000000   0.000001  -0.000001
  222  O  5 YYZ  -0.000000  -0.000000  -0.000002  -0.000000  -0.000000
  223  O  5 ZZX  -0.000005  -0.000018  -0.000000   0.000001  -0.000000
  224  O  5 ZZY   0.000009   0.000031  -0.000000  -0.000001   0.000001
  225  O  5 XYZ  -0.000000  -0.000000   0.000002   0.000000  -0.000000
  226  O  6  S   -0.000000  -0.000021  -0.000000   0.000002   0.000001
  227  O  6  S    0.000017   0.000087  -0.000000  -0.000002  -0.000001
  228  O  6  S    0.000006   0.000269  -0.000000  -0.000268  -0.000133
  229  O  6  S   -0.000368  -0.001126   0.000000   0.000538   0.000267
  230  O  6  X   -0.000001   0.000029  -0.000000  -0.000000   0.000002
  231  O  6  Y   -0.000002   0.000050  -0.000000   0.000002  -0.000000
  232  O  6  Z   -0.000000  -0.000000   0.000001  -0.000000   0.000000
  233  O  6  X    0.000030   0.000197  -0.000000  -0.000036  -0.000002
  234  O  6  Y    0.000051   0.000341   0.000000  -0.000047  -0.000033
  235  O  6  Z   -0.000000  -0.000000  -0.000020  -0.000000  -0.000000
  236  O  6  X   -0.000053  -0.000116  -0.000000   0.000055   0.000021
  237  O  6  Y   -0.000092  -0.000202   0.000000   0.000089   0.000048
  238  O  6  Z    0.000000  -0.000000  -0.000037  -0.000000  -0.000000
  239  O  6 XX   -0.000001  -0.000006  -0.000000   0.000001   0.000001
  240  O  6 YY    0.000006   0.000028  -0.000000  -0.000008  -0.000004
  241  O  6 ZZ   -0.000005  -0.000022  -0.000000   0.000007   0.000003
  242  O  6 XY    0.000007   0.000035  -0.000000  -0.000009  -0.000004
  243  O  6 XZ   -0.000000  -0.000000   0.000001  -0.000000  -0.000000
  244  O  6 YZ   -0.000000  -0.000000   0.000002  -0.000000  -0.000000
  245  O  6 XX   -0.000004  -0.000018  -0.000000   0.000001  -0.000002
  246  O  6 YY    0.000020   0.000088   0.000000   0.000012   0.000008
  247  O  6 ZZ   -0.000016  -0.000070  -0.000000  -0.000012  -0.000006
  248  O  6 XY    0.000024   0.000106  -0.000000   0.000013   0.000005
  249  O  6 XZ   -0.000000  -0.000000  -0.000011  -0.000000  -0.000000
  250  O  6 YZ   -0.000000  -0.000000  -0.000020  -0.000000  -0.000000
  251  O  6 XXX  -0.000007  -0.000025  -0.000000   0.000001   0.000001
  252  O  6 YYY   0.000005   0.000018  -0.000000   0.000000   0.000001
  253  O  6 ZZZ  -0.000000  -0.000000   0.000002  -0.000000  -0.000000
  254  O  6 XXY   0.000002   0.000008  -0.000000   0.000001  -0.000001
  255  O  6 XXZ  -0.000000  -0.000000  -0.000000  -0.000000  -0.000000
  256  O  6 YYX   0.000014   0.000052  -0.000000  -0.000001  -0.000001
  257  O  6 YYZ  -0.000000  -0.000000  -0.000002  -0.000000  -0.000000
  258  O  6 ZZX  -0.000005  -0.000018  -0.000000  -0.000001  -0.000000
  259  O  6 ZZY  -0.000009  -0.000031  -0.000000  -0.000001  -0.000001
  260  O  6 XYZ  -0.000000  -0.000000  -0.000002  -0.000000  -0.000000
  261  O  7  S   -0.000000  -0.000021  -0.000000  -0.000000  -0.000002
  262  O  7  S    0.000017   0.000087  -0.000000   0.000000   0.000002
  263  O  7  S    0.000006   0.000269   0.000000   0.000019   0.000299
  264  O  7  S   -0.000368  -0.001126  -0.000000  -0.000038  -0.000599
  265  O  7  X    0.000003  -0.000058  -0.000000   0.000000   0.000002
  266  O  7  Y   -0.000000  -0.000000  -0.000000   0.000003  -0.000000
  267  O  7  Z   -0.000000  -0.000000   0.000001  -0.000000  -0.000000
  268  O  7  X   -0.000059  -0.000394  -0.000000  -0.000004  -0.000066
  269  O  7  Y   -0.000000   0.000000  -0.000000   0.000016  -0.000001
  270  O  7  Z   -0.000000   0.000000  -0.000020  -0.000000   0.000000
  271  O  7  X    0.000107   0.000233   0.000000   0.000007   0.000117
  272  O  7  Y   -0.000000   0.000000   0.000000  -0.000007   0.000000
  273  O  7  Z    0.000000  -0.000000  -0.000037  -0.000000  -0.000000
  274  O  7 XX    0.000009   0.000046  -0.000000   0.000001   0.000014
  275  O  7 YY   -0.000005  -0.000023  -0.000000  -0.000000  -0.000006
  276  O  7 ZZ   -0.000005  -0.000022  -0.000000  -0.000000  -0.000007
  277  O  7 XY   -0.000000  -0.000000  -0.000000  -0.000001   0.000000
  278  O  7 XZ   -0.000000  -0.000000  -0.000002  -0.000000   0.000000
  279  O  7 YZ   -0.000000  -0.000000  -0.000000  -0.000000  -0.000000
  280  O  7 XX    0.000032   0.000141  -0.000000  -0.000001  -0.000021
  281  O  7 YY   -0.000016  -0.000071  -0.000000   0.000000   0.000007
  282  O  7 ZZ   -0.000016  -0.000070  -0.000000   0.000001   0.000014
  283  O  7 XY   -0.000000  -0.000000  -0.000000   0.000003  -0.000000
  284  O  7 XZ   -0.000000  -0.000000   0.000023  -0.000000  -0.000000
  285  O  7 YZ   -0.000000  -0.000000  -0.000000  -0.000000  -0.000000
  286  O  7 XXX  -0.000015  -0.000056  -0.000000  -0.000000  -0.000000
  287  O  7 YYY  -0.000000  -0.000000  -0.000000   0.000001  -0.000000
  288  O  7 ZZZ  -0.000000  -0.000000   0.000002  -0.000000   0.000000
  289  O  7 XXY  -0.000000   0.000000  -0.000000  -0.000001   0.000000
  290  O  7 XXZ  -0.000000  -0.000000  -0.000004  -0.000000  -0.000000
  291  O  7 YYX   0.000010   0.000039  -0.000000   0.000000   0.000002
  292  O  7 YYZ  -0.000000  -0.000000   0.000001  -0.000000   0.000000
  293  O  7 ZZX   0.000010   0.000036  -0.000000  -0.000000  -0.000002
  294  O  7 ZZY  -0.000000  -0.000000  -0.000000   0.000000  -0.000000
  295  O  7 XYZ  -0.000000  -0.000000  -0.000000  -0.000000  -0.000000
  296  C  8  S   -0.000044  -0.000342   0.000005   0.000000  -0.000000
  297  C  8  S   -0.000252  -0.000498  -0.000031  -0.000000   0.000000
  298  C  8  S    0.000768   0.002968   0.000109  -0.000000   0.000000
  299  C  8  S    0.000001   0.000386   0.000424   0.000000   0.000000
  300  C  8  X   -0.000000  -0.000000  -0.000000   0.000000   0.000001
  301  C  8  Y   -0.000000  -0.000000  -0.000000   0.000001  -0.000000
  302  C  8  Z   -0.000030   0.000147   0.000001   0.000000   0.000000
  303  C  8  X   -0.000000  -0.000000   0.000000   0.000001   0.000021
  304  C  8  Y   -0.000000   0.000000  -0.000000   0.000021  -0.000001
  305  C  8  Z    0.000310   0.001830   0.000059   0.000000   0.000000
  306  C  8  X    0.000000  -0.000000  -0.000000  -0.000000  -0.000002
  307  C  8  Y   -0.000000  -0.000000  -0.000000  -0.000002   0.000000
  308  C  8  Z   -0.000200  -0.000209   0.000661   0.000000   0.000000
  309  C  8 XX   -0.000002  -0.000012   0.000005  -0.000000  -0.000003
  310  C  8 YY   -0.000002  -0.000012   0.000005   0.000000   0.000003
  311  C  8 ZZ    0.000005   0.000025  -0.000009  -0.000000  -0.000000
  312  C  8 XY   -0.000000  -0.000000  -0.000000   0.000003  -0.000000
  313  C  8 XZ   -0.000000  -0.000000  -0.000000   0.000000   0.000004
  314  C  8 YZ   -0.000000  -0.000000  -0.000000   0.000004  -0.000000
  315  C  8 XX   -0.000175  -0.000569  -0.000044  -0.000001  -0.000010
  316  C  8 YY   -0.000175  -0.000569  -0.000044   0.000001   0.000010
  317  C  8 ZZ    0.000349   0.001137   0.000089  -0.000000   0.000000
  318  C  8 XY    0.000000   0.000000  -0.000000   0.000011  -0.000001
  319  C  8 XZ    0.000000  -0.000000   0.000000  -0.000002  -0.000036
  320  C  8 YZ   -0.000000  -0.000000  -0.000000  -0.000036   0.000002
  321  C  8 XXX  -0.000000   0.000000  -0.000001  -0.000002  -0.000033
  322  C  8 YYY  -0.000000  -0.000000  -0.000000  -0.000033   0.000002
  323  C  8 ZZZ   0.000091   0.000434  -0.000057   0.000000  -0.000000
  324  C  8 XXY  -0.000000  -0.000000  -0.000000  -0.000015   0.000001
  325  C  8 XXZ  -0.000061  -0.000291   0.000038  -0.000001  -0.000012
  326  C  8 YYX   0.000000  -0.000001   0.000001  -0.000001  -0.000015
  327  C  8 YYZ  -0.000061  -0.000291   0.000038   0.000001   0.000012
  328  C  8 ZZX   0.000000   0.000000   0.000000   0.000004   0.000059
  329  C  8 ZZY  -0.000000   0.000000  -0.000000   0.000059  -0.000004
  330  C  8 XYZ  -0.000000  -0.000000  -0.000000   0.000013  -0.000001
  331  C  9  S   -0.000044  -0.000342  -0.000005  -0.000000  -0.000000
  332  C  9  S   -0.000252  -0.000498   0.000031  -0.000000   0.000000
  333  C  9  S    0.000768   0.002968  -0.000109   0.000000  -0.000000
  334  C  9  S    0.000001   0.000386  -0.000424  -0.000000   0.000000
  335  C  9  X   -0.000000  -0.000000   0.000000   0.000000   0.000001
  336  C  9  Y   -0.000000  -0.000000  -0.000000   0.000001  -0.000000
  337  C  9  Z    0.000030  -0.000147   0.000001  -0.000000  -0.000000
  338  C  9  X   -0.000000   0.000000  -0.000000   0.000001   0.000021
  339  C  9  Y   -0.000000  -0.000000  -0.000000   0.000021  -0.000001
  340  C  9  Z   -0.000310  -0.001830   0.000059   0.000000  -0.000000
  341  C  9  X    0.000000   0.000000   0.000000  -0.000000  -0.000002
  342  C  9  Y   -0.000000  -0.000000  -0.000000  -0.000002   0.000000
  343  C  9  Z    0.000200   0.000209   0.000661   0.000000  -0.000000
  344  C  9 XX   -0.000002  -0.000012  -0.000005  -0.000000  -0.000003
  345  C  9 YY   -0.000002  -0.000012  -0.000005   0.000000   0.000003
  346  C  9 ZZ    0.000005   0.000025   0.000009  -0.000000  -0.000000
  347  C  9 XY   -0.000000  -0.000000  -0.000000   0.000003  -0.000000
  348  C  9 XZ    0.000000   0.000000  -0.000000  -0.000000  -0.000004
  349  C  9 YZ   -0.000000  -0.000000  -0.000000  -0.000004   0.000000
  350  C  9 XX   -0.000175  -0.000569   0.000044  -0.000001  -0.000010
  351  C  9 YY   -0.000175  -0.000569   0.000044   0.000001   0.000010
  352  C  9 ZZ    0.000349   0.001137  -0.000089   0.000000   0.000000
  353  C  9 XY    0.000000   0.000000  -0.000000   0.000011  -0.000001
  354  C  9 XZ   -0.000000  -0.000000   0.000000   0.000002   0.000036
  355  C  9 YZ   -0.000000   0.000000  -0.000000   0.000036  -0.000002
  356  C  9 XXX  -0.000000   0.000000   0.000001  -0.000002  -0.000033
  357  C  9 YYY  -0.000000  -0.000000  -0.000000  -0.000033   0.000002
  358  C  9 ZZZ  -0.000091  -0.000434  -0.000057   0.000000   0.000000
  359  C  9 XXY  -0.000000  -0.000000  -0.000000  -0.000015   0.000001
  360  C  9 XXZ   0.000061   0.000291   0.000038   0.000001   0.000012
  361  C  9 YYX   0.000000  -0.000001  -0.000001  -0.000001  -0.000015
  362  C  9 YYZ   0.000061   0.000291   0.000038  -0.000001  -0.000012
  363  C  9 ZZX   0.000000  -0.000000  -0.000000   0.000004   0.000059
  364  C  9 ZZY  -0.000000   0.000000  -0.000000   0.000059  -0.000004
  365  C  9 XYZ  -0.000000  -0.000000  -0.000000  -0.000013   0.000001
  366  O 10  S    0.000001   0.000020   0.000001  -0.000000  -0.000000
  367  O 10  S    0.000023   0.000045  -0.000004  -0.000000  -0.000000
  368  O 10  S   -0.000086  -0.000030  -0.000152   0.000000  -0.000000
  369  O 10  S   -0.000376  -0.001025   0.000493   0.000000   0.000000
  370  O 10  X   -0.000000  -0.000000   0.000000   0.000000   0.000008
  371  O 10  Y   -0.000000  -0.000000  -0.000000   0.000008  -0.000000
  372  O 10  Z   -0.000003  -0.000130   0.000001  -0.000000  -0.000000
  373  O 10  X   -0.000000  -0.000000  -0.000000  -0.000002  -0.000038
  374  O 10  Y   -0.000000  -0.000000  -0.000000  -0.000038   0.000002
  375  O 10  Z    0.000048   0.000182  -0.000031   0.000000  -0.000000
  376  O 10  X    0.000000   0.000000   0.000000  -0.000001  -0.000020
  377  O 10  Y   -0.000000  -0.000000  -0.000000  -0.000020   0.000001
  378  O 10  Z   -0.000123  -0.000397   0.000123   0.000000   0.000000
  379  O 10 XX   -0.000003  -0.000015   0.000004  -0.000000  -0.000000
  380  O 10 YY   -0.000003  -0.000015   0.000004   0.000000   0.000000
  381  O 10 ZZ    0.000007   0.000030  -0.000008  -0.000000  -0.000000
  382  O 10 XY   -0.000000  -0.000000  -0.000000   0.000001  -0.000000
  383  O 10 XZ   -0.000000  -0.000000  -0.000000  -0.000000  -0.000000
  384  O 10 YZ   -0.000000  -0.000000  -0.000000  -0.000000   0.000000
  385  O 10 XX   -0.000021  -0.000082  -0.000008   0.000000   0.000000
  386  O 10 YY   -0.000021  -0.000082  -0.000008  -0.000000  -0.000000
  387  O 10 ZZ    0.000041   0.000164   0.000016   0.000000  -0.000000
  388  O 10 XY   -0.000000  -0.000000  -0.000000  -0.000000   0.000000
[...]
-rw-r--r-- 1 bjb2chen nooijen   5734416 Mar 26 17:13 /home/bjb2chen/gmsscr//FeCO_SPK_gmcpt_C1_mult1_TZ8o10eAFTER9o12e_1st.F84.007
-rw-r--r-- 1 bjb2chen nooijen   5734416 Mar 26 17:13 /home/bjb2chen/gmsscr//FeCO_SPK_gmcpt_C1_mult1_TZ8o10eAFTER9o12e_1st.F84.008
-rw-r--r-- 1 bjb2chen nooijen   5734416 Mar 26 17:13 /home/bjb2chen/gmsscr//FeCO_SPK_gmcpt_C1_mult1_TZ8o10eAFTER9o12e_1st.F84.009
-rw-r--r-- 1 bjb2chen nooijen  39834816 Mar 26 17:17 /home/bjb2chen/gmsscr//FeCO_SPK_gmcpt_C1_mult1_TZ8o10eAFTER9o12e_1st.F85
-rw-r--r-- 1 bjb2chen nooijen  39834816 Mar 26 17:16 /home/bjb2chen/gmsscr//FeCO_SPK_gmcpt_C1_mult1_TZ8o10eAFTER9o12e_1st.F85.001
-rw-r--r-- 1 bjb2chen nooijen  39834816 Mar 26 17:16 /home/bjb2chen/gmsscr//FeCO_SPK_gmcpt_C1_mult1_TZ8o10eAFTER9o12e_1st.F85.002
-rw-r--r-- 1 bjb2chen nooijen  39834816 Mar 26 17:16 /home/bjb2chen/gmsscr//FeCO_SPK_gmcpt_C1_mult1_TZ8o10eAFTER9o12e_1st.F85.003
-rw-r--r-- 1 bjb2chen nooijen  39834816 Mar 26 17:16 /home/bjb2chen/gmsscr//FeCO_SPK_gmcpt_C1_mult1_TZ8o10eAFTER9o12e_1st.F85.004
-rw-r--r-- 1 bjb2chen nooijen  39834816 Mar 26 17:16 /home/bjb2chen/gmsscr//FeCO_SPK_gmcpt_C1_mult1_TZ8o10eAFTER9o12e_1st.F85.005
-rw-r--r-- 1 bjb2chen nooijen  39834816 Mar 26 17:16 /home/bjb2chen/gmsscr//FeCO_SPK_gmcpt_C1_mult1_TZ8o10eAFTER9o12e_1st.F85.006
-rw-r--r-- 1 bjb2chen nooijen  39834816 Mar 26 17:16 /home/bjb2chen/gmsscr//FeCO_SPK_gmcpt_C1_mult1_TZ8o10eAFTER9o12e_1st.F85.007
-rw-r--r-- 1 bjb2chen nooijen  39834816 Mar 26 17:16 /home/bjb2chen/gmsscr//FeCO_SPK_gmcpt_C1_mult1_TZ8o10eAFTER9o12e_1st.F85.008
-rw-r--r-- 1 bjb2chen nooijen  39834816 Mar 26 17:16 /home/bjb2chen/gmsscr//FeCO_SPK_gmcpt_C1_mult1_TZ8o10eAFTER9o12e_1st.F85.009
-rw-r--r-- 1 bjb2chen nooijen 154740400 Mar 26 17:17 /home/bjb2chen/gmsscr//FeCO_SPK_gmcpt_C1_mult1_TZ8o10eAFTER9o12e_1st.F86
-rw-r--r-- 1 bjb2chen nooijen 155087824 Mar 26 17:17 /home/bjb2chen/gmsscr//FeCO_SPK_gmcpt_C1_mult1_TZ8o10eAFTER9o12e_1st.F86.001
-rw-r--r-- 1 bjb2chen nooijen 159899376 Mar 26 17:17 /home/bjb2chen/gmsscr//FeCO_SPK_gmcpt_C1_mult1_TZ8o10eAFTER9o12e_1st.F86.002
-rw-r--r-- 1 bjb2chen nooijen 155723536 Mar 26 17:17 /home/bjb2chen/gmsscr//FeCO_SPK_gmcpt_C1_mult1_TZ8o10eAFTER9o12e_1st.F86.003
-rw-r--r-- 1 bjb2chen nooijen 152287312 Mar 26 17:17 /home/bjb2chen/gmsscr//FeCO_SPK_gmcpt_C1_mult1_TZ8o10eAFTER9o12e_1st.F86.004
-rw-r--r-- 1 bjb2chen nooijen 157302928 Mar 26 17:17 /home/bjb2chen/gmsscr//FeCO_SPK_gmcpt_C1_mult1_TZ8o10eAFTER9o12e_1st.F86.005
-rw-r--r-- 1 bjb2chen nooijen 151712048 Mar 26 17:17 /home/bjb2chen/gmsscr//FeCO_SPK_gmcpt_C1_mult1_TZ8o10eAFTER9o12e_1st.F86.006
-rw-r--r-- 1 bjb2chen nooijen 155882896 Mar 26 17:17 /home/bjb2chen/gmsscr//FeCO_SPK_gmcpt_C1_mult1_TZ8o10eAFTER9o12e_1st.F86.007
-rw-r--r-- 1 bjb2chen nooijen 149965456 Mar 26 17:17 /home/bjb2chen/gmsscr//FeCO_SPK_gmcpt_C1_mult1_TZ8o10eAFTER9o12e_1st.F86.008
-rw-r--r-- 1 bjb2chen nooijen 150745968 Mar 26 17:17 /home/bjb2chen/gmsscr//FeCO_SPK_gmcpt_C1_mult1_TZ8o10eAFTER9o12e_1st.F86.009
-rw-r--r-- 1 bjb2chen nooijen        80 Mar 26 17:23 /home/bjb2chen/gmsscr//FeCO_SPK_gmcpt_C1_mult1_TZ8o10eAFTER9o12e_1st.F87
-rw-r--r-- 1 bjb2chen nooijen        80 Mar 26 17:23 /home/bjb2chen/gmsscr//FeCO_SPK_gmcpt_C1_mult1_TZ8o10eAFTER9o12e_1st.F87.001
-rw-r--r-- 1 bjb2chen nooijen        80 Mar 26 17:23 /home/bjb2chen/gmsscr//FeCO_SPK_gmcpt_C1_mult1_TZ8o10eAFTER9o12e_1st.F87.002
-rw-r--r-- 1 bjb2chen nooijen        80 Mar 26 17:23 /home/bjb2chen/gmsscr//FeCO_SPK_gmcpt_C1_mult1_TZ8o10eAFTER9o12e_1st.F87.003
-rw-r--r-- 1 bjb2chen nooijen        80 Mar 26 17:23 /home/bjb2chen/gmsscr//FeCO_SPK_gmcpt_C1_mult1_TZ8o10eAFTER9o12e_1st.F87.004
-rw-r--r-- 1 bjb2chen nooijen        80 Mar 26 17:23 /home/bjb2chen/gmsscr//FeCO_SPK_gmcpt_C1_mult1_TZ8o10eAFTER9o12e_1st.F87.005
-rw-r--r-- 1 bjb2chen nooijen        80 Mar 26 17:23 /home/bjb2chen/gmsscr//FeCO_SPK_gmcpt_C1_mult1_TZ8o10eAFTER9o12e_1st.F87.006
-rw-r--r-- 1 bjb2chen nooijen        80 Mar 26 17:23 /home/bjb2chen/gmsscr//FeCO_SPK_gmcpt_C1_mult1_TZ8o10eAFTER9o12e_1st.F87.007
-rw-r--r-- 1 bjb2chen nooijen        80 Mar 26 17:23 /home/bjb2chen/gmsscr//FeCO_SPK_gmcpt_C1_mult1_TZ8o10eAFTER9o12e_1st.F87.008
-rw-r--r-- 1 bjb2chen nooijen        80 Mar 26 17:23 /home/bjb2chen/gmsscr//FeCO_SPK_gmcpt_C1_mult1_TZ8o10eAFTER9o12e_1st.F87.009
-rw-r--r-- 1 bjb2chen nooijen      6608 Mar 26 17:23 /home/bjb2chen/gmsscr//FeCO_SPK_gmcpt_C1_mult1_TZ8o10eAFTER9o12e_1st.F88
-rw-r--r-- 1 bjb2chen nooijen      6608 Mar 26 17:23 /home/bjb2chen/gmsscr//FeCO_SPK_gmcpt_C1_mult1_TZ8o10eAFTER9o12e_1st.F88.001
-rw-r--r-- 1 bjb2chen nooijen      6608 Mar 26 17:23 /home/bjb2chen/gmsscr//FeCO_SPK_gmcpt_C1_mult1_TZ8o10eAFTER9o12e_1st.F88.002
-rw-r--r-- 1 bjb2chen nooijen      6608 Mar 26 17:23 /home/bjb2chen/gmsscr//FeCO_SPK_gmcpt_C1_mult1_TZ8o10eAFTER9o12e_1st.F88.003
-rw-r--r-- 1 bjb2chen nooijen      6608 Mar 26 17:23 /home/bjb2chen/gmsscr//FeCO_SPK_gmcpt_C1_mult1_TZ8o10eAFTER9o12e_1st.F88.004
-rw-r--r-- 1 bjb2chen nooijen      6608 Mar 26 17:23 /home/bjb2chen/gmsscr//FeCO_SPK_gmcpt_C1_mult1_TZ8o10eAFTER9o12e_1st.F88.005
-rw-r--r-- 1 bjb2chen nooijen      6608 Mar 26 17:23 /home/bjb2chen/gmsscr//FeCO_SPK_gmcpt_C1_mult1_TZ8o10eAFTER9o12e_1st.F88.006
-rw-r--r-- 1 bjb2chen nooijen      6608 Mar 26 17:23 /home/bjb2chen/gmsscr//FeCO_SPK_gmcpt_C1_mult1_TZ8o10eAFTER9o12e_1st.F88.007
-rw-r--r-- 1 bjb2chen nooijen      6608 Mar 26 17:23 /home/bjb2chen/gmsscr//FeCO_SPK_gmcpt_C1_mult1_TZ8o10eAFTER9o12e_1st.F88.008
-rw-r--r-- 1 bjb2chen nooijen      6608 Mar 26 17:23 /home/bjb2chen/gmsscr//FeCO_SPK_gmcpt_C1_mult1_TZ8o10eAFTER9o12e_1st.F88.009
-rw-r--r-- 1 bjb2chen nooijen      2808 Mar 26 17:17 /home/bjb2chen/gmsscr//FeCO_SPK_gmcpt_C1_mult1_TZ8o10eAFTER9o12e_1st.F89
-rw-r--r-- 1 bjb2chen nooijen      2808 Mar 26 17:16 /home/bjb2chen/gmsscr//FeCO_SPK_gmcpt_C1_mult1_TZ8o10eAFTER9o12e_1st.F89.001
-rw-r--r-- 1 bjb2chen nooijen      2808 Mar 26 17:16 /home/bjb2chen/gmsscr//FeCO_SPK_gmcpt_C1_mult1_TZ8o10eAFTER9o12e_1st.F89.002
-rw-r--r-- 1 bjb2chen nooijen      2808 Mar 26 17:16 /home/bjb2chen/gmsscr//FeCO_SPK_gmcpt_C1_mult1_TZ8o10eAFTER9o12e_1st.F89.003
-rw-r--r-- 1 bjb2chen nooijen      2808 Mar 26 17:16 /home/bjb2chen/gmsscr//FeCO_SPK_gmcpt_C1_mult1_TZ8o10eAFTER9o12e_1st.F89.004
-rw-r--r-- 1 bjb2chen nooijen      2808 Mar 26 17:16 /home/bjb2chen/gmsscr//FeCO_SPK_gmcpt_C1_mult1_TZ8o10eAFTER9o12e_1st.F89.005
-rw-r--r-- 1 bjb2chen nooijen      2808 Mar 26 17:16 /home/bjb2chen/gmsscr//FeCO_SPK_gmcpt_C1_mult1_TZ8o10eAFTER9o12e_1st.F89.006
-rw-r--r-- 1 bjb2chen nooijen      2808 Mar 26 17:16 /home/bjb2chen/gmsscr//FeCO_SPK_gmcpt_C1_mult1_TZ8o10eAFTER9o12e_1st.F89.007
-rw-r--r-- 1 bjb2chen nooijen      2808 Mar 26 17:16 /home/bjb2chen/gmsscr//FeCO_SPK_gmcpt_C1_mult1_TZ8o10eAFTER9o12e_1st.F89.008
-rw-r--r-- 1 bjb2chen nooijen      2808 Mar 26 17:16 /home/bjb2chen/gmsscr//FeCO_SPK_gmcpt_C1_mult1_TZ8o10eAFTER9o12e_1st.F89.009
-rw-r--r-- 1 bjb2chen nooijen         0 Mar 26 13:37 /home/bjb2chen/gmsscr//FeCO_SPK_gmcpt_C1_mult1_TZ8o10eAFTER9o12e_1st.F90
-rw-r--r-- 1 bjb2chen nooijen         0 Mar 26 13:37 /home/bjb2chen/gmsscr//FeCO_SPK_gmcpt_C1_mult1_TZ8o10eAFTER9o12e_1st.F90.001
-rw-r--r-- 1 bjb2chen nooijen         0 Mar 26 13:37 /home/bjb2chen/gmsscr//FeCO_SPK_gmcpt_C1_mult1_TZ8o10eAFTER9o12e_1st.F90.002
-rw-r--r-- 1 bjb2chen nooijen         0 Mar 26 13:37 /home/bjb2chen/gmsscr//FeCO_SPK_gmcpt_C1_mult1_TZ8o10eAFTER9o12e_1st.F90.003
-rw-r--r-- 1 bjb2chen nooijen         0 Mar 26 13:37 /home/bjb2chen/gmsscr//FeCO_SPK_gmcpt_C1_mult1_TZ8o10eAFTER9o12e_1st.F90.004
-rw-r--r-- 1 bjb2chen nooijen         0 Mar 26 13:37 /home/bjb2chen/gmsscr//FeCO_SPK_gmcpt_C1_mult1_TZ8o10eAFTER9o12e_1st.F90.005
-rw-r--r-- 1 bjb2chen nooijen         0 Mar 26 13:37 /home/bjb2chen/gmsscr//FeCO_SPK_gmcpt_C1_mult1_TZ8o10eAFTER9o12e_1st.F90.006
-rw-r--r-- 1 bjb2chen nooijen         0 Mar 26 13:37 /home/bjb2chen/gmsscr//FeCO_SPK_gmcpt_C1_mult1_TZ8o10eAFTER9o12e_1st.F90.007
-rw-r--r-- 1 bjb2chen nooijen         0 Mar 26 13:37 /home/bjb2chen/gmsscr//FeCO_SPK_gmcpt_C1_mult1_TZ8o10eAFTER9o12e_1st.F90.008
-rw-r--r-- 1 bjb2chen nooijen         0 Mar 26 13:37 /home/bjb2chen/gmsscr//FeCO_SPK_gmcpt_C1_mult1_TZ8o10eAFTER9o12e_1st.F90.009
-rw-r--r-- 1 bjb2chen nooijen     89416 Mar 26 17:22 /home/bjb2chen/gmsscr//FeCO_SPK_gmcpt_C1_mult1_TZ8o10eAFTER9o12e_1st.F91
-rw-r--r-- 1 bjb2chen nooijen     89416 Mar 26 17:22 /home/bjb2chen/gmsscr//FeCO_SPK_gmcpt_C1_mult1_TZ8o10eAFTER9o12e_1st.F91.001
-rw-r--r-- 1 bjb2chen nooijen     89416 Mar 26 17:23 /home/bjb2chen/gmsscr//FeCO_SPK_gmcpt_C1_mult1_TZ8o10eAFTER9o12e_1st.F91.002
-rw-r--r-- 1 bjb2chen nooijen     89416 Mar 26 17:22 /home/bjb2chen/gmsscr//FeCO_SPK_gmcpt_C1_mult1_TZ8o10eAFTER9o12e_1st.F91.003
-rw-r--r-- 1 bjb2chen nooijen     89416 Mar 26 17:22 /home/bjb2chen/gmsscr//FeCO_SPK_gmcpt_C1_mult1_TZ8o10eAFTER9o12e_1st.F91.004
-rw-r--r-- 1 bjb2chen nooijen     89416 Mar 26 17:22 /home/bjb2chen/gmsscr//FeCO_SPK_gmcpt_C1_mult1_TZ8o10eAFTER9o12e_1st.F91.005
-rw-r--r-- 1 bjb2chen nooijen     89416 Mar 26 17:22 /home/bjb2chen/gmsscr//FeCO_SPK_gmcpt_C1_mult1_TZ8o10eAFTER9o12e_1st.F91.006
-rw-r--r-- 1 bjb2chen nooijen     89416 Mar 26 17:22 /home/bjb2chen/gmsscr//FeCO_SPK_gmcpt_C1_mult1_TZ8o10eAFTER9o12e_1st.F91.007
-rw-r--r-- 1 bjb2chen nooijen     89416 Mar 26 17:22 /home/bjb2chen/gmsscr//FeCO_SPK_gmcpt_C1_mult1_TZ8o10eAFTER9o12e_1st.F91.008
-rw-r--r-- 1 bjb2chen nooijen     89416 Mar 26 17:22 /home/bjb2chen/gmsscr//FeCO_SPK_gmcpt_C1_mult1_TZ8o10eAFTER9o12e_1st.F91.009
-rw-r--r-- 1 bjb2chen nooijen     87848 Mar 26 17:16 /home/bjb2chen/gmsscr//FeCO_SPK_gmcpt_C1_mult1_TZ8o10eAFTER9o12e_1st.F92
-rw-r--r-- 1 bjb2chen nooijen     87848 Mar 26 17:16 /home/bjb2chen/gmsscr//FeCO_SPK_gmcpt_C1_mult1_TZ8o10eAFTER9o12e_1st.F92.001
-rw-r--r-- 1 bjb2chen nooijen     87848 Mar 26 17:16 /home/bjb2chen/gmsscr//FeCO_SPK_gmcpt_C1_mult1_TZ8o10eAFTER9o12e_1st.F92.002
-rw-r--r-- 1 bjb2chen nooijen     87848 Mar 26 17:16 /home/bjb2chen/gmsscr//FeCO_SPK_gmcpt_C1_mult1_TZ8o10eAFTER9o12e_1st.F92.003
-rw-r--r-- 1 bjb2chen nooijen     87848 Mar 26 17:16 /home/bjb2chen/gmsscr//FeCO_SPK_gmcpt_C1_mult1_TZ8o10eAFTER9o12e_1st.F92.004
-rw-r--r-- 1 bjb2chen nooijen     87848 Mar 26 17:16 /home/bjb2chen/gmsscr//FeCO_SPK_gmcpt_C1_mult1_TZ8o10eAFTER9o12e_1st.F92.005
-rw-r--r-- 1 bjb2chen nooijen     87848 Mar 26 17:16 /home/bjb2chen/gmsscr//FeCO_SPK_gmcpt_C1_mult1_TZ8o10eAFTER9o12e_1st.F92.006
-rw-r--r-- 1 bjb2chen nooijen     87848 Mar 26 17:16 /home/bjb2chen/gmsscr//FeCO_SPK_gmcpt_C1_mult1_TZ8o10eAFTER9o12e_1st.F92.007
-rw-r--r-- 1 bjb2chen nooijen     87848 Mar 26 17:16 /home/bjb2chen/gmsscr//FeCO_SPK_gmcpt_C1_mult1_TZ8o10eAFTER9o12e_1st.F92.008
-rw-r--r-- 1 bjb2chen nooijen     87848 Mar 26 17:16 /home/bjb2chen/gmsscr//FeCO_SPK_gmcpt_C1_mult1_TZ8o10eAFTER9o12e_1st.F92.009
-rw-r--r-- 1 bjb2chen nooijen     56488 Mar 26 17:17 /home/bjb2chen/gmsscr//FeCO_SPK_gmcpt_C1_mult1_TZ8o10eAFTER9o12e_1st.F93
-rw-r--r-- 1 bjb2chen nooijen     56488 Mar 26 17:16 /home/bjb2chen/gmsscr//FeCO_SPK_gmcpt_C1_mult1_TZ8o10eAFTER9o12e_1st.F93.001
-rw-r--r-- 1 bjb2chen nooijen     56488 Mar 26 17:16 /home/bjb2chen/gmsscr//FeCO_SPK_gmcpt_C1_mult1_TZ8o10eAFTER9o12e_1st.F93.002
-rw-r--r-- 1 bjb2chen nooijen     56488 Mar 26 17:16 /home/bjb2chen/gmsscr//FeCO_SPK_gmcpt_C1_mult1_TZ8o10eAFTER9o12e_1st.F93.003
-rw-r--r-- 1 bjb2chen nooijen     56488 Mar 26 17:16 /home/bjb2chen/gmsscr//FeCO_SPK_gmcpt_C1_mult1_TZ8o10eAFTER9o12e_1st.F93.004
-rw-r--r-- 1 bjb2chen nooijen     56488 Mar 26 17:16 /home/bjb2chen/gmsscr//FeCO_SPK_gmcpt_C1_mult1_TZ8o10eAFTER9o12e_1st.F93.005
-rw-r--r-- 1 bjb2chen nooijen     56488 Mar 26 17:16 /home/bjb2chen/gmsscr//FeCO_SPK_gmcpt_C1_mult1_TZ8o10eAFTER9o12e_1st.F93.006
-rw-r--r-- 1 bjb2chen nooijen     56488 Mar 26 17:16 /home/bjb2chen/gmsscr//FeCO_SPK_gmcpt_C1_mult1_TZ8o10eAFTER9o12e_1st.F93.007
-rw-r--r-- 1 bjb2chen nooijen     56488 Mar 26 17:16 /home/bjb2chen/gmsscr//FeCO_SPK_gmcpt_C1_mult1_TZ8o10eAFTER9o12e_1st.F93.008
-rw-r--r-- 1 bjb2chen nooijen     56488 Mar 26 17:16 /home/bjb2chen/gmsscr//FeCO_SPK_gmcpt_C1_mult1_TZ8o10eAFTER9o12e_1st.F93.009
-rw-r--r-- 1 bjb2chen nooijen     34088 Mar 26 17:17 /home/bjb2chen/gmsscr//FeCO_SPK_gmcpt_C1_mult1_TZ8o10eAFTER9o12e_1st.F94
-rw-r--r-- 1 bjb2chen nooijen     34088 Mar 26 17:16 /home/bjb2chen/gmsscr//FeCO_SPK_gmcpt_C1_mult1_TZ8o10eAFTER9o12e_1st.F94.001
-rw-r--r-- 1 bjb2chen nooijen     34088 Mar 26 17:16 /home/bjb2chen/gmsscr//FeCO_SPK_gmcpt_C1_mult1_TZ8o10eAFTER9o12e_1st.F94.002
-rw-r--r-- 1 bjb2chen nooijen     34088 Mar 26 17:16 /home/bjb2chen/gmsscr//FeCO_SPK_gmcpt_C1_mult1_TZ8o10eAFTER9o12e_1st.F94.003
-rw-r--r-- 1 bjb2chen nooijen     34088 Mar 26 17:16 /home/bjb2chen/gmsscr//FeCO_SPK_gmcpt_C1_mult1_TZ8o10eAFTER9o12e_1st.F94.004
-rw-r--r-- 1 bjb2chen nooijen     34088 Mar 26 17:16 /home/bjb2chen/gmsscr//FeCO_SPK_gmcpt_C1_mult1_TZ8o10eAFTER9o12e_1st.F94.005
-rw-r--r-- 1 bjb2chen nooijen     34088 Mar 26 17:16 /home/bjb2chen/gmsscr//FeCO_SPK_gmcpt_C1_mult1_TZ8o10eAFTER9o12e_1st.F94.006
-rw-r--r-- 1 bjb2chen nooijen     34088 Mar 26 17:16 /home/bjb2chen/gmsscr//FeCO_SPK_gmcpt_C1_mult1_TZ8o10eAFTER9o12e_1st.F94.007
-rw-r--r-- 1 bjb2chen nooijen     34088 Mar 26 17:16 /home/bjb2chen/gmsscr//FeCO_SPK_gmcpt_C1_mult1_TZ8o10eAFTER9o12e_1st.F94.008
-rw-r--r-- 1 bjb2chen nooijen     34088 Mar 26 17:16 /home/bjb2chen/gmsscr//FeCO_SPK_gmcpt_C1_mult1_TZ8o10eAFTER9o12e_1st.F94.009
-rw-r--r-- 1 bjb2chen nooijen     13480 Mar 26 17:17 /home/bjb2chen/gmsscr//FeCO_SPK_gmcpt_C1_mult1_TZ8o10eAFTER9o12e_1st.F95
-rw-r--r-- 1 bjb2chen nooijen     13480 Mar 26 17:16 /home/bjb2chen/gmsscr//FeCO_SPK_gmcpt_C1_mult1_TZ8o10eAFTER9o12e_1st.F95.001
-rw-r--r-- 1 bjb2chen nooijen     13480 Mar 26 17:16 /home/bjb2chen/gmsscr//FeCO_SPK_gmcpt_C1_mult1_TZ8o10eAFTER9o12e_1st.F95.002
-rw-r--r-- 1 bjb2chen nooijen     13480 Mar 26 17:16 /home/bjb2chen/gmsscr//FeCO_SPK_gmcpt_C1_mult1_TZ8o10eAFTER9o12e_1st.F95.003
-rw-r--r-- 1 bjb2chen nooijen     13480 Mar 26 17:16 /home/bjb2chen/gmsscr//FeCO_SPK_gmcpt_C1_mult1_TZ8o10eAFTER9o12e_1st.F95.004
-rw-r--r-- 1 bjb2chen nooijen     13480 Mar 26 17:16 /home/bjb2chen/gmsscr//FeCO_SPK_gmcpt_C1_mult1_TZ8o10eAFTER9o12e_1st.F95.005
-rw-r--r-- 1 bjb2chen nooijen     13480 Mar 26 17:16 /home/bjb2chen/gmsscr//FeCO_SPK_gmcpt_C1_mult1_TZ8o10eAFTER9o12e_1st.F95.006
-rw-r--r-- 1 bjb2chen nooijen     13480 Mar 26 17:16 /home/bjb2chen/gmsscr//FeCO_SPK_gmcpt_C1_mult1_TZ8o10eAFTER9o12e_1st.F95.007
-rw-r--r-- 1 bjb2chen nooijen     13480 Mar 26 17:16 /home/bjb2chen/gmsscr//FeCO_SPK_gmcpt_C1_mult1_TZ8o10eAFTER9o12e_1st.F95.008
-rw-r--r-- 1 bjb2chen nooijen     13480 Mar 26 17:16 /home/bjb2chen/gmsscr//FeCO_SPK_gmcpt_C1_mult1_TZ8o10eAFTER9o12e_1st.F95.009
-rw-r--r-- 1 bjb2chen nooijen     25112 Mar 26 17:23 /home/bjb2chen/gmsscr//FeCO_SPK_gmcpt_C1_mult1_TZ8o10eAFTER9o12e_1st.F96
-rw-r--r-- 1 bjb2chen nooijen     25112 Mar 26 17:23 /home/bjb2chen/gmsscr//FeCO_SPK_gmcpt_C1_mult1_TZ8o10eAFTER9o12e_1st.F96.001
-rw-r--r-- 1 bjb2chen nooijen     25112 Mar 26 17:23 /home/bjb2chen/gmsscr//FeCO_SPK_gmcpt_C1_mult1_TZ8o10eAFTER9o12e_1st.F96.002
-rw-r--r-- 1 bjb2chen nooijen     25112 Mar 26 17:23 /home/bjb2chen/gmsscr//FeCO_SPK_gmcpt_C1_mult1_TZ8o10eAFTER9o12e_1st.F96.003
-rw-r--r-- 1 bjb2chen nooijen     25112 Mar 26 17:23 /home/bjb2chen/gmsscr//FeCO_SPK_gmcpt_C1_mult1_TZ8o10eAFTER9o12e_1st.F96.004
-rw-r--r-- 1 bjb2chen nooijen     25112 Mar 26 17:23 /home/bjb2chen/gmsscr//FeCO_SPK_gmcpt_C1_mult1_TZ8o10eAFTER9o12e_1st.F96.005
-rw-r--r-- 1 bjb2chen nooijen     25112 Mar 26 17:23 /home/bjb2chen/gmsscr//FeCO_SPK_gmcpt_C1_mult1_TZ8o10eAFTER9o12e_1st.F96.006
-rw-r--r-- 1 bjb2chen nooijen     25112 Mar 26 17:23 /home/bjb2chen/gmsscr//FeCO_SPK_gmcpt_C1_mult1_TZ8o10eAFTER9o12e_1st.F96.007
-rw-r--r-- 1 bjb2chen nooijen     25112 Mar 26 17:23 /home/bjb2chen/gmsscr//FeCO_SPK_gmcpt_C1_mult1_TZ8o10eAFTER9o12e_1st.F96.008
-rw-r--r-- 1 bjb2chen nooijen     25112 Mar 26 17:23 /home/bjb2chen/gmsscr//FeCO_SPK_gmcpt_C1_mult1_TZ8o10eAFTER9o12e_1st.F96.009
-rw-r--r-- 1 bjb2chen nooijen      1544 Mar 26 17:23 /home/bjb2chen/gmsscr//FeCO_SPK_gmcpt_C1_mult1_TZ8o10eAFTER9o12e_1st.F97
-rw-r--r-- 1 bjb2chen nooijen      1544 Mar 26 17:23 /home/bjb2chen/gmsscr//FeCO_SPK_gmcpt_C1_mult1_TZ8o10eAFTER9o12e_1st.F97.001
-rw-r--r-- 1 bjb2chen nooijen      1544 Mar 26 17:23 /home/bjb2chen/gmsscr//FeCO_SPK_gmcpt_C1_mult1_TZ8o10eAFTER9o12e_1st.F97.002
-rw-r--r-- 1 bjb2chen nooijen      1544 Mar 26 17:23 /home/bjb2chen/gmsscr//FeCO_SPK_gmcpt_C1_mult1_TZ8o10eAFTER9o12e_1st.F97.003
-rw-r--r-- 1 bjb2chen nooijen      1544 Mar 26 17:23 /home/bjb2chen/gmsscr//FeCO_SPK_gmcpt_C1_mult1_TZ8o10eAFTER9o12e_1st.F97.004
-rw-r--r-- 1 bjb2chen nooijen      1544 Mar 26 17:23 /home/bjb2chen/gmsscr//FeCO_SPK_gmcpt_C1_mult1_TZ8o10eAFTER9o12e_1st.F97.005
-rw-r--r-- 1 bjb2chen nooijen      1544 Mar 26 17:23 /home/bjb2chen/gmsscr//FeCO_SPK_gmcpt_C1_mult1_TZ8o10eAFTER9o12e_1st.F97.006
-rw-r--r-- 1 bjb2chen nooijen      1544 Mar 26 17:23 /home/bjb2chen/gmsscr//FeCO_SPK_gmcpt_C1_mult1_TZ8o10eAFTER9o12e_1st.F97.007
-rw-r--r-- 1 bjb2chen nooijen      1544 Mar 26 17:23 /home/bjb2chen/gmsscr//FeCO_SPK_gmcpt_C1_mult1_TZ8o10eAFTER9o12e_1st.F97.008
-rw-r--r-- 1 bjb2chen nooijen      1544 Mar 26 17:23 /home/bjb2chen/gmsscr//FeCO_SPK_gmcpt_C1_mult1_TZ8o10eAFTER9o12e_1st.F97.009
-rw-r--r-- 1 bjb2chen nooijen     25096 Mar 26 17:13 /home/bjb2chen/gmsscr//FeCO_SPK_gmcpt_C1_mult1_TZ8o10eAFTER9o12e_1st.F98
-rw-r--r-- 1 bjb2chen nooijen     25096 Mar 26 17:13 /home/bjb2chen/gmsscr//FeCO_SPK_gmcpt_C1_mult1_TZ8o10eAFTER9o12e_1st.F98.001
-rw-r--r-- 1 bjb2chen nooijen     25096 Mar 26 17:13 /home/bjb2chen/gmsscr//FeCO_SPK_gmcpt_C1_mult1_TZ8o10eAFTER9o12e_1st.F98.002
-rw-r--r-- 1 bjb2chen nooijen     25096 Mar 26 17:13 /home/bjb2chen/gmsscr//FeCO_SPK_gmcpt_C1_mult1_TZ8o10eAFTER9o12e_1st.F98.003
-rw-r--r-- 1 bjb2chen nooijen     25096 Mar 26 17:13 /home/bjb2chen/gmsscr//FeCO_SPK_gmcpt_C1_mult1_TZ8o10eAFTER9o12e_1st.F98.004
-rw-r--r-- 1 bjb2chen nooijen     25096 Mar 26 17:13 /home/bjb2chen/gmsscr//FeCO_SPK_gmcpt_C1_mult1_TZ8o10eAFTER9o12e_1st.F98.005
-rw-r--r-- 1 bjb2chen nooijen     25096 Mar 26 17:13 /home/bjb2chen/gmsscr//FeCO_SPK_gmcpt_C1_mult1_TZ8o10eAFTER9o12e_1st.F98.006
-rw-r--r-- 1 bjb2chen nooijen     25096 Mar 26 17:13 /home/bjb2chen/gmsscr//FeCO_SPK_gmcpt_C1_mult1_TZ8o10eAFTER9o12e_1st.F98.007
-rw-r--r-- 1 bjb2chen nooijen     25096 Mar 26 17:13 /home/bjb2chen/gmsscr//FeCO_SPK_gmcpt_C1_mult1_TZ8o10eAFTER9o12e_1st.F98.008
-rw-r--r-- 1 bjb2chen nooijen     25096 Mar 26 17:13 /home/bjb2chen/gmsscr//FeCO_SPK_gmcpt_C1_mult1_TZ8o10eAFTER9o12e_1st.F98.009
-rw-r--r-- 1 bjb2chen nooijen    125464 Mar 26 17:16 /home/bjb2chen/gmsscr//FeCO_SPK_gmcpt_C1_mult1_TZ8o10eAFTER9o12e_1st.F99
-rw-r--r-- 1 bjb2chen nooijen    125464 Mar 26 17:16 /home/bjb2chen/gmsscr//FeCO_SPK_gmcpt_C1_mult1_TZ8o10eAFTER9o12e_1st.F99.001
-rw-r--r-- 1 bjb2chen nooijen    125464 Mar 26 17:16 /home/bjb2chen/gmsscr//FeCO_SPK_gmcpt_C1_mult1_TZ8o10eAFTER9o12e_1st.F99.002
-rw-r--r-- 1 bjb2chen nooijen    125464 Mar 26 17:16 /home/bjb2chen/gmsscr//FeCO_SPK_gmcpt_C1_mult1_TZ8o10eAFTER9o12e_1st.F99.003
-rw-r--r-- 1 bjb2chen nooijen    125464 Mar 26 17:16 /home/bjb2chen/gmsscr//FeCO_SPK_gmcpt_C1_mult1_TZ8o10eAFTER9o12e_1st.F99.004
-rw-r--r-- 1 bjb2chen nooijen    125464 Mar 26 17:16 /home/bjb2chen/gmsscr//FeCO_SPK_gmcpt_C1_mult1_TZ8o10eAFTER9o12e_1st.F99.005
-rw-r--r-- 1 bjb2chen nooijen    125464 Mar 26 17:16 /home/bjb2chen/gmsscr//FeCO_SPK_gmcpt_C1_mult1_TZ8o10eAFTER9o12e_1st.F99.006
-rw-r--r-- 1 bjb2chen nooijen    125464 Mar 26 17:16 /home/bjb2chen/gmsscr//FeCO_SPK_gmcpt_C1_mult1_TZ8o10eAFTER9o12e_1st.F99.007
-rw-r--r-- 1 bjb2chen nooijen    125464 Mar 26 17:16 /home/bjb2chen/gmsscr//FeCO_SPK_gmcpt_C1_mult1_TZ8o10eAFTER9o12e_1st.F99.008
-rw-r--r-- 1 bjb2chen nooijen    125464 Mar 26 17:16 /home/bjb2chen/gmsscr//FeCO_SPK_gmcpt_C1_mult1_TZ8o10eAFTER9o12e_1st.F99.009
ls: No match.
ls: No match.
ls: No match.
Tue 26 Mar 2024 05:23:10 PM EDT
0.388u 0.348s 3:45:28.04 0.0%	0+0k 5088+5368io 0pf+0w
