SCRATCH DIRECTORY IS /localscratch/bjb2chen.18562723.0
----- GAMESS execution script 'rungms' -----
This job is running on host gra1286
under operating system Linux at Tue Apr 9 02:22:38 AM EDT 2024
Available scratch disk space (Kbyte units) at beginning of the job is
Filesystem     1K-blocks      Used Available Use% Mounted on
/dev/sda1      921690020 114333564 760513980  14% /local
GAMESS temporary binary files will be written to /localscratch/bjb2chen.18562723.0
GAMESS supplementary output files will be written to /scratch/bjb2chen/vibronics/8o9e/fastLagrangian
Copying input file FeCOcat_SPK_gmcpt_C1_5st_diab_0.05_+x1q29.inp to your run's scratch directory...
cp FeCOcat_SPK_gmcpt_C1_5st_diab_0.05_+x1q29.inp /localscratch/bjb2chen.18562723.0/FeCOcat_SPK_gmcpt_C1_5st_diab_0.05_+x1q29.F05
unset echo
Please save, rename, or erase these files from a previous run:
     /scratch/bjb2chen/vibronics/8o9e/fastLagrangian/FeCOcat_SPK_gmcpt_C1_5st_diab_0.05_+x1q29.dat,
     /scratch/bjb2chen/vibronics/8o9e/fastLagrangian/FeCOcat_SPK_gmcpt_C1_5st_diab_0.05_+x1q29.trj,
     /scratch/bjb2chen/vibronics/8o9e/fastLagrangian/FeCOcat_SPK_gmcpt_C1_5st_diab_0.05_+x1q29.rst, and/or
     /scratch/bjb2chen/vibronics/8o9e/fastLagrangian/FeCOcat_SPK_gmcpt_C1_5st_diab_0.05_+x1q29.efp,
and then resubmit this computation.
Toby is deleting them all
 
Assuming a single but multicore node.
 
/home/bjb2chen/LOCAL/gamess.mrsftddft.fmo.180731/ddikick.x /home/bjb2chen/LOCAL/gamess.mrsftddft.fmo.180731/gamess.00.x FeCOcat_SPK_gmcpt_C1_5st_diab_0.05_+x1q29 -ddi 1 20 gra1286:cpus=20 -scr /localscratch/bjb2chen.18562723.0

 Distributed Data Interface kickoff program.
 Initiating 20 compute processes on 1 nodes to run the following command:
 /home/bjb2chen/LOCAL/gamess.mrsftddft.fmo.180731/gamess.00.x FeCOcat_SPK_gmcpt_C1_5st_diab_0.05_+x1q29 

          ******************************************************
          *         GAMESS VERSION = 14 FEB 2018 (R1)         *
          *             FROM IOWA STATE UNIVERSITY             *
          * M.W.SCHMIDT, K.K.BALDRIDGE, J.A.BOATZ, S.T.ELBERT, *
          *   M.S.GORDON, J.H.JENSEN, S.KOSEKI, N.MATSUNAGA,   *
          *          K.A.NGUYEN, S.J.SU, T.L.WINDUS,           *
          *       TOGETHER WITH M.DUPUIS, J.A.MONTGOMERY       *
          *         J.COMPUT.CHEM.  14, 1347-1363(1993)        *
          **************** 64 BIT INTEL VERSION ****************

  SINCE 1993, STUDENTS AND POSTDOCS WORKING AT IOWA STATE UNIVERSITY
  AND ALSO IN THEIR VARIOUS JOBS AFTER LEAVING ISU HAVE MADE IMPORTANT
  CONTRIBUTIONS TO THE CODE:
     IVANA ADAMOVIC, CHRISTINE AIKENS, YURI ALEXEEV, POOJA ARORA,
     ANDREY ASADCHEV, ROB BELL, PRADIPTA BANDYOPADHYAY, JONATHAN BENTZ,
     BRETT BODE, KURT BRORSEN, CALEB CARLIN, GALINA CHABAN, WEI CHEN,
     CHEOL HO CHOI, PAUL DAY, ALBERT DEFUSCO, NUWAN DESILVA, TIM DUDLEY,
     DMITRI FEDOROV, ALEX FINDLATER, GRAHAM FLETCHER, MARK FREITAG,
     KURT GLAESEMANN, ANASTASIA GUININA,
     DAN KEMP, GRANT MERRILL, NORIYUKI MINEZAWA, JONATHAN MULLIN,
     TAKESHI NAGATA, SEAN NEDD, HEATHER NETZLOFF, BOSILJKA NJEGIC, RYAN OLSON,
     MIKE PAK, BUU PHAM,
     SPENCER PRUITT, LUKE ROSKOP, JIM SHOEMAKER, LYUDMILA SLIPCHENKO,
     TONY SMITH, SAROM SOK LEANG, JIE SONG, TETSUYA TAKETSUGU, SIMON WEBB,
     PENG XU, SOOHAENG YOO, FEDERICO ZAHARIEV

  ADDITIONAL CODE HAS BEEN PROVIDED BY COLLABORATORS IN OTHER GROUPS:
     IOWA STATE UNIVERSITY:
          JOE IVANIC, AARON WEST, LAIMUTIS BYTAUTAS, KLAUS RUEDENBERG
     UNIVERSITY OF TOKYO: KIMIHIKO HIRAO, TAKAHITO NAKAJIMA,
          TAKAO TSUNEDA, MUNEAKI KAMIYA, SUSUMU YANAGISAWA,
          KIYOSHI YAGI, MAHITO CHIBA, SEIKEN TOKURA, NAOAKI KAWAKAMI
     UNIVERSITY OF AARHUS: FRANK JENSEN
     UNIVERSITY OF IOWA: VISVALDAS KAIRYS, HUI LI
     NATIONAL INST. OF STANDARDS AND TECHNOLOGY: WALT STEVENS, DAVID GARMER
     UNIVERSITY OF PISA: BENEDETTA MENNUCCI, JACOPO TOMASI
     UNIVERSITY OF MEMPHIS: HENRY KURTZ, PRAKASHAN KORAMBATH
     UNIVERSITY OF ALBERTA: TOBY ZENG, MARIUSZ KLOBUKOWSKI
     UNIVERSITY OF NEW ENGLAND: MARK SPACKMAN
     MIE UNIVERSITY: HIROAKI UMEDA
     NAT. INST. OF ADVANCED INDUSTRIAL SCIENCE AND TECHNOLOGY: KAZUO KITAURA
     MICHIGAN STATE UNIVERSITY:
          KAROL KOWALSKI, MARTA WLOCH, JEFFREY GOUR, JESSE LUTZ,
          WEI LI, PIOTR PIECUCH
     UNIVERSITY OF SILESIA: MONIKA MUSIAL, STANISLAW KUCHARSKI
     FACULTES UNIVERSITAIRES NOTRE-DAME DE LA PAIX:
          OLIVIER QUINET, BENOIT CHAMPAGNE
     UNIVERSITY OF CALIFORNIA - SANTA BARBARA: BERNARD KIRTMAN
     INSTITUTE FOR MOLECULAR SCIENCE:
          KAZUYA ISHIMURA, MICHIO KATOUDA, AND SHIGERU NAGASE
     UNIVERSITY OF NOTRE DAME: ANNA POMOGAEVA, DAN CHIPMAN
     KYUSHU UNIVERSITY:
          HARUYUKI NAKANO,
          FENG LONG GU, JACEK KORCHOWIEC, MARCIN MAKOWSKI, AND YURIKO AOKI,
          HIROTOSHI MORI AND EISAKU MIYOSHI
     PENNSYLVANIA STATE UNIVERSITY:
          TZVETELIN IORDANOV, CHET SWALINA, JONATHAN SKONE,
          SHARON HAMMES-SCHIFFER
     WASEDA UNIVERSITY:
          MASATO KOBAYASHI, TOMOKO AKAMA, TSUGUKI TOUMA,
          TAKESHI YOSHIKAWA, YASUHIRO IKABATA, JUNJI SEINO,
          YUYA NAKAJIMA, HIROMI NAKAI
     NANJING UNIVERSITY: SHUHUA LI
     UNIVERSITY OF NEBRASKA:
          PEIFENG SU, DEJUN SI, NANDUN THELLAMUREGE, YALI WANG, HUI LI
     UNIVERSITY OF ZURICH: ROBERTO PEVERATI, KIM BALDRIDGE
     N. COPERNICUS UNIVERSITY AND JACKSON STATE UNIVERSITY:
          MARIA BARYSZ
     UNIVERSITY OF COPENHAGEN: Jimmy Kromann, CASPER STEINMANN
     TOKYO INSTITUTE OF TECHNOLOGY: HIROYA NAKATA
     NAGOYA UNIVERSITY: YOSHIO NISHIMOTO, STEPHAN IRLE
     MOSCOW STATE UNIVERSITY: VLADIMIR MIRONOV


 PARALLEL VERSION RUNNING ON       20 PROCESSORS IN        1 NODES.

 EXECUTION OF GAMESS BEGUN Tue Apr  9 02:22:39 2024

            ECHO OF THE FIRST FEW INPUT CARDS -
 INPUT CARD> !############################################################################# 
 INPUT CARD> !                   D_3h RHF GEOMETRY OPTIMIZATION AND HESSIAN TEMPLATE        
 INPUT CARD> ! ---------------------------------------------------------------------------  
 INPUT CARD> ! Replace the symmetry-correct coordinates, should only be two atoms.          
 INPUT CARD> ! The hydrogen or fluorine should have only one non-zero x,y,z coordinate.     
 INPUT CARD> !                                                                              
 INPUT CARD> ! Basis set?   gbasis=ccd for 2nd row,                                         
 INPUT CARD> !                         cct 3rd/4th,                                         
 INPUT CARD> !                   SPKrTZP for heavy,                                         
 INPUT CARD> !                   SPKrTZC beyond 4th                                         
 INPUT CARD> !                                                                              
 INPUT CARD> !############################################################################# 
 INPUT CARD> $system kdiag=3 mwords=500 memddi=5000 parall=.t. $end                         
 INPUT CARD> $contrl runtyp=energy ispher=1 $end                                            
 INPUT CARD> $contrl icut=9 itol=20 inttyp=rysquad qmttol=1.0d-05 nosym=1 $end              
 INPUT CARD> $contrl scftyp=mcscf  mult=2 maxit=200 icharg=1 mplevl=2 $end                  
 INPUT CARD> $scf    npunch=2 conv=1.0d-06 dirscf=.t. $end                                  
 INPUT CARD> $force  method=seminum $end                                                    
 INPUT CARD> $trans  dirtrf=.t. $end                                                        
 INPUT CARD> $statpt hssend=.t. $end                                                        
 INPUT CARD> $basis  gbasis=SPKrTZP $end                                                    
 INPUT CARD> !############################################################################# 
 INPUT CARD> !                                                                              
 INPUT CARD> !                       TURN ON THIS SECTION IF HEAVY ATOM                     
 INPUT CARD> !                                                                              
 INPUT CARD> !############################################################################# 
 INPUT CARD> !                                                                              
 INPUT CARD> $contrl relwfn=LUT-IOTC $end                                                   
 INPUT CARD> $scf  diis=.t. soscf=.f. ethrsh=10.0 $end                                      
 INPUT CARD> -guess iorder(43)=44 iorder(44)=43 $end                                        
 INPUT CARD> $gmcpt nsolut=200 $end                                                         
 INPUT CARD> !                                                                              
 INPUT CARD> !############################################################################# 
 INPUT CARD> !                                                                              
 INPUT CARD> ! TURN ON THIS SECTION IF GMCPT, CHANGE runtyp=energy, scftyp=mcscf, change nos
 INPUT CARD> !                                                                              
 INPUT CARD> !############################################################################# 
 INPUT CARD> $guess  guess=moread norb=369 purify=.t. norder=1 $end                         
 INPUT CARD> $mcscf  cistep=gmcci fullnr=.t. finci=mos                                      
 INPUT CARD>         acurcy=1.d-6 maxit=100 $end                                            
 INPUT CARD> $mrmp   mrpt=gmcpt rdvecs=.f. $end                                             
 INPUT CARD> $gmcpt  nmofzc=19 nmodoc=24 nmoact=8 nelact=9 stsym(1)=A                       
 INPUT CARD>         reftyp=ormas nspace=1 mstart(1)=44 mine(1)=9 maxe(1)=9                 
 INPUT CARD>         kstate(1)=1,1,1,1,1                                                    
 INPUT CARD>         wstate(1)=1,1,1,1,1                                                    
 INPUT CARD>         iwgt=0 thrwgt=-1.0 krot=.f. kszdoe=.f. knospn=.f.                      
 INPUT CARD>         thrde=-1.0 edshft=0.02 maxbas=8000 $end                                
 INPUT CARD> !############################################################################# 
 INPUT CARD> !                                                                              
 INPUT CARD> !             TURN OFF THIS SECTION IF temp.inp, add C1                        
  500000000 WORDS OF MEMORY AVAILABLE

     $BASIS REQUESTS READING THE "SPKRTZP " BASIS SET FROM AN EXTERNAL FILE


     RUN TITLE
     ---------
  FeCO 5 states diabatization                                                    

 THE POINT GROUP OF THE MOLECULE IS C1      
 THE ORDER OF THE PRINCIPAL AXIS IS     0

 THE EXTERNAL BASIS SET FILE BEING READ IS
     "/home/bjb2chen/LOCAL/gamess.mrsftddft.fmo.180731/auxdata/BASES/SPKRTZP"

 ATOM      ATOMIC                      COORDINATES (BOHR)
           CHARGE         X                   Y                   Z
 FE         26.0    -0.0000000001        0.0000000000       -0.0000773881
 C           6.0    -1.6675781290        2.8883300448       -0.0000438916
 C           6.0    -1.6675781290       -2.8883300448       -0.0000438916
 C           6.0     3.3351562535        0.0000000000       -0.0000438954
 O           8.0    -2.7565274151        4.7744455353        0.0000223617
 O           8.0    -2.7565274151       -4.7744455353        0.0000223617
 O           8.0     5.5130548378       -0.0000000001        0.0000223614
 C           6.0     0.0000000065        0.0000000000       -3.1691801649
 C           6.0    -0.0000000053        0.0000000000        3.1731534612
 O           8.0     0.0000000040        0.0000000001       -5.3744680598
 O           8.0    -0.0000000041       -0.0000000001        5.3717895470

          INTERNUCLEAR DISTANCES (ANGS.)
          ------------------------------

                1 FE         2 C          3 C          4 C          5 O     

   1 FE      0.0000000    1.7648888 *  1.7648888 *  1.7648888 *  2.9173832 *
   2 C       1.7648888 *  0.0000000    3.0568771    3.0568771    1.1524944 *
   3 C       1.7648888 *  3.0568771    0.0000000    3.0568771    4.0957068  
   4 C       1.7648888 *  3.0568771    3.0568771    0.0000000    4.0957068  
   5 O       2.9173832 *  1.1524944 *  4.0957068    4.0957068    0.0000000  
   6 O       2.9173832 *  4.0957068    1.1524944 *  4.0957068    5.0530559  
   7 O       2.9173832 *  4.0957068    4.0957068    1.1524944 *  5.0530559  
   8 C       1.6770171 *  2.4346002 *  2.4346002 *  2.4346002 *  3.3650688  
   9 C       1.6792016 *  2.4360811 *  2.4360811 *  2.4360811 *  3.3661054  
  10 O       2.8440053 *  3.3471330    3.3471330    3.3471330    4.0742841  
  11 O       2.8426698 *  3.3459682    3.3459682    3.3459682    4.0732783  

                6 O          7 O          8 C          9 C         10 O     

   1 FE      2.9173832 *  2.9173832 *  1.6770171 *  1.6792016 *  2.8440053 *
   2 C       4.0957068    4.0957068    2.4346002 *  2.4360811 *  3.3471330  
   3 C       1.1524944 *  4.0957068    2.4346002 *  2.4360811 *  3.3471330  
   4 C       4.0957068    1.1524944 *  2.4346002 *  2.4360811 *  3.3471330  
   5 O       5.0530559    5.0530559    3.3650688    3.3661054    4.0742841  
   6 O       0.0000000    5.0530559    3.3650688    3.3661054    4.0742841  
   7 O       5.0530559    0.0000000    3.3650688    3.3661054    4.0742841  
   8 C       3.3650688    3.3650688    0.0000000    3.3562187    1.1669882 *
   9 C       3.3661054    3.3661054    3.3562187    0.0000000    4.5232068  
  10 O       4.0742841    4.0742841    1.1669882 *  4.5232068    0.0000000  
  11 O       4.0732783    4.0732783    4.5196869    1.1634682 *  5.6866750  

               11 O     

   1 FE      2.8426698 *
   2 C       3.3459682  
   3 C       3.3459682  
   4 C       3.3459682  
   5 O       4.0732783  
   6 O       4.0732783  
   7 O       4.0732783  
   8 C       4.5196869  
   9 C       1.1634682 *
  10 O       5.6866750  
  11 O       0.0000000  

  * ... LESS THAN  3.000


     ATOMIC BASIS SET
     ----------------
 THE CONTRACTED PRIMITIVE FUNCTIONS HAVE BEEN UNNORMALIZED
 THE CONTRACTED BASIS FUNCTIONS ARE NOW NORMALIZED TO UNITY

  SHELL TYPE  PRIMITIVE        EXPONENT          CONTRACTION COEFFICIENT(S)

 FE        

      1   S       1       1100791.5305010    0.000473999976
      1   S       2        111958.3587060    0.002184999889
      1   S       3         19185.3576710    0.008689999559
      1   S       4          4445.3037100    0.032685998341
      1   S       5          1266.9965100    0.110141994410
      1   S       6           416.6310290    0.284031985586
      1   S       7           150.8643160    0.454264876947
      1   S       8            56.3399190    0.263064986650

      2   S       9           359.6946140   -0.022463999939
      2   S      10           108.1698330   -0.110348999698
      2   S      11            16.2239570    0.581708898408
      2   S      12             6.5680420    0.504839898618

      3   S      13            10.7418790   -0.362092191734
      3   S      14             1.7503840    1.164823573408

      4   S      15             2.5115960    1.000000000000

      5   S      16             0.7053330    1.000000000000

      6   S      17             0.3621190    1.000000000000

      7   S      18             0.1098870    1.000000000000

      8   S      19             0.0389760    1.000000000000

      9   P      20          3763.5373930    0.001033999945
      9   P      21           777.6255800    0.008099999572
      9   P      22           235.1625800    0.042150997771
      9   P      23            85.2386240    0.150979992017
      9   P      24            34.2178420    0.344345981793
      9   P      25            14.4530580    0.445691976434
      9   P      26             6.0108430    0.197984989532

     10   P      27            29.2356570   -0.050671998602
     10   P      28             3.8658850    1.015612071978

     11   P      29             1.5321320    1.000000000000

     12   P      30             0.6880240    1.000000000000

     13   P      31             0.3377060    1.000000000000

     14   P      32             0.1058510    1.000000000000

     15   D      33           153.1499290    0.002483999928
     15   D      34            39.2185330    0.024814999278
     15   D      35            13.1241220    0.112497096729
     15   D      36             4.9420130    0.294331191441
     15   D      37             1.9182510    0.436439287309
     15   D      38             0.7263080    0.400155288364

     16   D      39             1.2013780    1.000000000000

     17   D      40             0.4134800    1.000000000000

     18   D      41             0.2769570    0.803321387841
     18   D      42             0.1024240    0.267279095955

     19   F      43             7.1173700    0.248360909500
     19   F      44             2.0161170    0.867482733183

     20   F      45             0.5734880    1.000000000000

     21   G      46             3.1098950    0.428615975933
     21   G      47             0.8477510    0.770538956734

 C         

     22   S      48          2806.9439975    0.002023800059
     22   S      49           421.5775504    0.015441100454
     22   S      50            95.8957402    0.075177402208
     22   S      51            26.9445497    0.249027707314
     22   S      52             8.5713784    0.482075214159
     22   S      53             2.8716364    0.326878109601

     23   S      54             4.9998841   -0.210680004154
     23   S      55             0.5327613    1.077681121247

     24   S      56             0.2075124    1.000000000000

     25   S      57             0.0868337    1.000000000000

     26   P      58            18.6818848    0.039471499719
     26   P      59             4.1250373    0.244388698258
     26   P      60             1.1979790    0.815218894188

     27   P      61             0.3821592    1.000000000000

     28   P      62             0.1206886    1.000000000000

     29   D      63             3.0148490    0.111983997300
     29   D      64             0.8820640    0.935464277443

     30   D      65             0.2854600    1.000000000000

     31   F      66             1.2468250    0.439684998371
     31   F      67             0.4390430    0.686338997457

 C         

     32   S      68          2806.9439975    0.002023800059
     32   S      69           421.5775504    0.015441100454
     32   S      70            95.8957402    0.075177402208
     32   S      71            26.9445497    0.249027707314
     32   S      72             8.5713784    0.482075214159
     32   S      73             2.8716364    0.326878109601

     33   S      74             4.9998841   -0.210680004154
     33   S      75             0.5327613    1.077681121247

     34   S      76             0.2075124    1.000000000000

     35   S      77             0.0868337    1.000000000000

     36   P      78            18.6818848    0.039471499719
     36   P      79             4.1250373    0.244388698258
     36   P      80             1.1979790    0.815218894188

     37   P      81             0.3821592    1.000000000000

     38   P      82             0.1206886    1.000000000000

     39   D      83             3.0148490    0.111983997300
     39   D      84             0.8820640    0.935464277443

     40   D      85             0.2854600    1.000000000000

     41   F      86             1.2468250    0.439684998371
     41   F      87             0.4390430    0.686338997457

 C         

     42   S      88          2806.9439975    0.002023800059
     42   S      89           421.5775504    0.015441100454
     42   S      90            95.8957402    0.075177402208
     42   S      91            26.9445497    0.249027707314
     42   S      92             8.5713784    0.482075214159
     42   S      93             2.8716364    0.326878109601

     43   S      94             4.9998841   -0.210680004154
     43   S      95             0.5327613    1.077681121247

     44   S      96             0.2075124    1.000000000000

     45   S      97             0.0868337    1.000000000000

     46   P      98            18.6818848    0.039471499719
     46   P      99             4.1250373    0.244388698258
     46   P     100             1.1979790    0.815218894188

     47   P     101             0.3821592    1.000000000000

     48   P     102             0.1206886    1.000000000000

     49   D     103             3.0148490    0.111983997300
     49   D     104             0.8820640    0.935464277443

     50   D     105             0.2854600    1.000000000000

     51   F     106             1.2468250    0.439684998371
     51   F     107             0.4390430    0.686338997457

 O         

     52   S     108          5077.7107079    0.002005200049
     52   S     109           762.6032479    0.015311300372
     52   S     110           173.4747916    0.074816301816
     52   S     111            48.8026730    0.249940906066
     52   S     112            15.6087813    0.483164411726
     52   S     113             5.2562810    0.324034307864

     53   S     114             9.8167720   -0.213008798624
     53   S     115             1.0626144    1.079351093025

     54   S     116             0.4112889    1.000000000000

     55   S     117             0.1672821    1.000000000000

     56   P     118            34.4309698    0.041201500385
     56   P     119             7.7428211    0.257878902408
     56   P     120             2.2788395    0.802283507490

     57   P     121             0.7151603    1.000000000000

     58   P     122             0.2137722    1.000000000000

     59   D     123             5.9603300    0.136289097514
     59   D     124             1.7648530    0.919489483226

     60   D     125             0.5756600    1.000000000000

     61   F     126             2.4143370    0.424090301385
     61   F     127             0.7676600    0.719405502349

 O         

     62   S     128          5077.7107079    0.002005200049
     62   S     129           762.6032479    0.015311300372
     62   S     130           173.4747916    0.074816301816
     62   S     131            48.8026730    0.249940906066
     62   S     132            15.6087813    0.483164411726
     62   S     133             5.2562810    0.324034307864

     63   S     134             9.8167720   -0.213008798624
     63   S     135             1.0626144    1.079351093025

     64   S     136             0.4112889    1.000000000000

     65   S     137             0.1672821    1.000000000000

     66   P     138            34.4309698    0.041201500385
     66   P     139             7.7428211    0.257878902408
     66   P     140             2.2788395    0.802283507490

     67   P     141             0.7151603    1.000000000000

     68   P     142             0.2137722    1.000000000000

     69   D     143             5.9603300    0.136289097514
     69   D     144             1.7648530    0.919489483226

     70   D     145             0.5756600    1.000000000000

     71   F     146             2.4143370    0.424090301385
     71   F     147             0.7676600    0.719405502349

 O         

     72   S     148          5077.7107079    0.002005200049
     72   S     149           762.6032479    0.015311300372
     72   S     150           173.4747916    0.074816301816
     72   S     151            48.8026730    0.249940906066
     72   S     152            15.6087813    0.483164411726
     72   S     153             5.2562810    0.324034307864

     73   S     154             9.8167720   -0.213008798624
     73   S     155             1.0626144    1.079351093025

     74   S     156             0.4112889    1.000000000000

     75   S     157             0.1672821    1.000000000000

     76   P     158            34.4309698    0.041201500385
     76   P     159             7.7428211    0.257878902408
     76   P     160             2.2788395    0.802283507490

     77   P     161             0.7151603    1.000000000000

     78   P     162             0.2137722    1.000000000000

     79   D     163             5.9603300    0.136289097514
     79   D     164             1.7648530    0.919489483226

     80   D     165             0.5756600    1.000000000000

     81   F     166             2.4143370    0.424090301385
     81   F     167             0.7676600    0.719405502349

 C         

     82   S     168          2806.9439975    0.002023800059
     82   S     169           421.5775504    0.015441100454
     82   S     170            95.8957402    0.075177402208
     82   S     171            26.9445497    0.249027707314
     82   S     172             8.5713784    0.482075214159
     82   S     173             2.8716364    0.326878109601

     83   S     174             4.9998841   -0.210680004154
     83   S     175             0.5327613    1.077681121247

     84   S     176             0.2075124    1.000000000000

     85   S     177             0.0868337    1.000000000000

     86   P     178            18.6818848    0.039471499719
     86   P     179             4.1250373    0.244388698258
     86   P     180             1.1979790    0.815218894188

     87   P     181             0.3821592    1.000000000000

     88   P     182             0.1206886    1.000000000000

     89   D     183             3.0148490    0.111983997300
     89   D     184             0.8820640    0.935464277443

     90   D     185             0.2854600    1.000000000000

     91   F     186             1.2468250    0.439684998371
     91   F     187             0.4390430    0.686338997457

 C         

     92   S     188          2806.9439975    0.002023800059
     92   S     189           421.5775504    0.015441100454
     92   S     190            95.8957402    0.075177402208
     92   S     191            26.9445497    0.249027707314
     92   S     192             8.5713784    0.482075214159
     92   S     193             2.8716364    0.326878109601

     93   S     194             4.9998841   -0.210680004154
     93   S     195             0.5327613    1.077681121247

     94   S     196             0.2075124    1.000000000000

     95   S     197             0.0868337    1.000000000000

     96   P     198            18.6818848    0.039471499719
     96   P     199             4.1250373    0.244388698258
     96   P     200             1.1979790    0.815218894188

     97   P     201             0.3821592    1.000000000000

     98   P     202             0.1206886    1.000000000000

     99   D     203             3.0148490    0.111983997300
     99   D     204             0.8820640    0.935464277443

    100   D     205             0.2854600    1.000000000000

    101   F     206             1.2468250    0.439684998371
    101   F     207             0.4390430    0.686338997457

 O         

    102   S     208          5077.7107079    0.002005200049
    102   S     209           762.6032479    0.015311300372
    102   S     210           173.4747916    0.074816301816
    102   S     211            48.8026730    0.249940906066
    102   S     212            15.6087813    0.483164411726
    102   S     213             5.2562810    0.324034307864

    103   S     214             9.8167720   -0.213008798624
    103   S     215             1.0626144    1.079351093025

    104   S     216             0.4112889    1.000000000000

    105   S     217             0.1672821    1.000000000000

    106   P     218            34.4309698    0.041201500385
    106   P     219             7.7428211    0.257878902408
    106   P     220             2.2788395    0.802283507490

    107   P     221             0.7151603    1.000000000000

    108   P     222             0.2137722    1.000000000000

    109   D     223             5.9603300    0.136289097514
    109   D     224             1.7648530    0.919489483226

    110   D     225             0.5756600    1.000000000000

    111   F     226             2.4143370    0.424090301385
    111   F     227             0.7676600    0.719405502349

 O         

    112   S     228          5077.7107079    0.002005200049
    112   S     229           762.6032479    0.015311300372
    112   S     230           173.4747916    0.074816301816
    112   S     231            48.8026730    0.249940906066
    112   S     232            15.6087813    0.483164411726
    112   S     233             5.2562810    0.324034307864

    113   S     234             9.8167720   -0.213008798624
    113   S     235             1.0626144    1.079351093025

    114   S     236             0.4112889    1.000000000000

    115   S     237             0.1672821    1.000000000000

    116   P     238            34.4309698    0.041201500385
    116   P     239             7.7428211    0.257878902408
    116   P     240             2.2788395    0.802283507490

    117   P     241             0.7151603    1.000000000000

    118   P     242             0.2137722    1.000000000000

    119   D     243             5.9603300    0.136289097514
    119   D     244             1.7648530    0.919489483226

    120   D     245             0.5756600    1.000000000000

    121   F     246             2.4143370    0.424090301385
    121   F     247             0.7676600    0.719405502349

 TOTAL NUMBER OF BASIS SET SHELLS             =  121
 NUMBER OF CARTESIAN GAUSSIAN BASIS FUNCTIONS =  435
 NOTE: THIS RUN WILL RESTRICT THE MO VARIATION SPACE TO SPHERICAL HARMONICS.
 THE NUMBER OF ORBITALS KEPT IN THE VARIATIONAL SPACE WILL BE PRINTED LATER.
 NUMBER OF ELECTRONS                          =   95
 CHARGE OF MOLECULE                           =    1
 SPIN MULTIPLICITY                            =    2
 NUMBER OF OCCUPIED ORBITALS (ALPHA)          =   48
 NUMBER OF OCCUPIED ORBITALS (BETA )          =   47
 TOTAL NUMBER OF ATOMS                        =   11
 THE NUCLEAR REPULSION ENERGY IS      825.5539120314

     ---------------------------------
     RELATIVISTIC WAVEFUNCTION OPTIONS
     ---------------------------------
     METHOD=LUT-IOTC NORDER= 2       NESOC=  0      MODEQR=      1
     NRATOM=  0      QMTTOL= 1.000E-10      QRTOL= 1.000E-10
     CLIGHT=137.03598950     TAU= 3.500E+00

 INTERNAL BASIS SET UNCONTRACTION FOR RESC/DK/IOTC/LUT-IOTC:
   247 SHELLS AND    808 AOS ARE CONSTRUCTED, COMPARED TO
   121 SHELLS AND    435 AOS IN THE CONTRACTED BASIS SET


     $CONTRL OPTIONS
     ---------------
 SCFTYP=MCSCF        RUNTYP=ENERGY       EXETYP=RUN     
 MPLEVL=       2     CITYP =NONE         CCTYP =NONE         VBTYP =NONE    
 DFTTYP=NONE         TDDFT =NONE    
 MULT  =       2     ICHARG=       1     NZVAR =       0     COORD =UNIQUE  
 PP    =NONE         RELWFN=LUT-IOTC     LOCAL =NONE         NUMGRD=       F
 ISPHER=       1     NOSYM =       1     MAXIT =     200     UNITS =ANGS    
 PLTORB=       F     MOLPLT=       F     AIMPAC=       F     FRIEND=        
 NPRINT=       7     IREST =       0     GEOM  =INPUT   
 NORMF =       0     NORMP =       0     ITOL  =      20     ICUT  =       9
 INTTYP=RYSQUAD      GRDTYP=BEST         QMTTOL= 1.0E-05

     $SYSTEM OPTIONS
     ---------------
  REPLICATED MEMORY=   500000000 WORDS (ON EVERY NODE).
 DISTRIBUTED MEMDDI=        5000 MILLION WORDS IN AGGREGATE,
 MEMDDI DISTRIBUTED OVER  20 PROCESSORS IS   250000000 WORDS/PROCESSOR.
 TOTAL MEMORY REQUESTED ON EACH PROCESSOR=   750000000 WORDS.
 TIMLIM=      525600.00 MINUTES, OR     365.0 DAYS.
 PARALL= T  BALTYP=  DLB     KDIAG=    3  COREFL= F
 MXSEQ2=     300 MXSEQ3=     150  mem10=         0

          ----------------
          PROPERTIES INPUT
          ----------------

     MOMENTS            FIELD           POTENTIAL          DENSITY
 IEMOM =       1   IEFLD =       0   IEPOT =       0   IEDEN =       0
 WHERE =COMASS     WHERE =NUCLEI     WHERE =NUCLEI     WHERE =NUCLEI  
 OUTPUT=BOTH       OUTPUT=BOTH       OUTPUT=BOTH       OUTPUT=BOTH    
 IEMINT=       0   IEFINT=       0                     IEDINT=       0
                                                       MORB  =       0

     -------------------------------
     INTEGRAL TRANSFORMATION OPTIONS
     -------------------------------
     NWORD  =            0
     CUTOFF = 1.0E-09     MPTRAN =       0
     DIRTRF =       T     AOINTS =DUP     

          ----------------------
          MCSCF INPUT PARAMETERS
          ----------------------
 CONVERGER SELECTION: FOCAS = F  SOSCF = F  FULLNR = T  QUD = F  JACOBI = F
 SECULAR EQUATION METHOD CISTEP = GMCCI   
 --- GENERAL INPUT OPTIONS:
 MAXIT =     100  MICIT =       1  ACURCY= 1.000E-06
 DAMP  =   0.000  CANONC=       T  ENGTOL= 1.000E-10
 EKT   =       F  NPUNCH=       2  NWORD =         0
 REGENERATE CI AFTER CONVERGENCE = NONE    
 DIABATIZATION AFTER CONVERGENCE =        F
 --- INPUT FOR FULLNR CONVERGER:
 METHOD=DM2       FORS  =       F  DROPC =       T
 LINSER=       F  FCORE =       F  NORB  =     435

          ----------------------
          INTEGRAL INPUT OPTIONS
          ----------------------
 NOPK  =       1 NORDER=       0 SCHWRZ=       T

 ------------------------------------------
 MULTIREFERENCE PERTURBATION THEORY CONTROL
 ------------------------------------------
 MRPT=GMCPT    READ CONVERGED MCSCF VECTORS= F


     ------------------------------------------
     THE POINT GROUP IS C1 , NAXIS= 1, ORDER= 1
     ------------------------------------------

 -- VARIATIONAL SPACE WILL BE RESTRICTED TO PURE SPHERICAL HARMONICS ONLY --
 AFTER EXCLUDING CONTAMINANT COMBINATIONS FROM THE CARTESIAN GAUSSIAN BASIS
 SET, THE NUMBER OF SPHERICAL HARMONICS KEPT IN THE VARIATION SPACE IS  369

     DIMENSIONS OF THE SYMMETRY SUBSPACES ARE
 A   =  369

 ..... DONE SETTING UP THE RUN .....
 CPU     0: STEP CPU TIME=     0.74 TOTAL CPU TIME=          0.7 (      0.0 MIN)
 TOTAL WALL CLOCK TIME=          0.9 SECONDS, CPU UTILIZATION IS    86.05%

          ********************
          1 ELECTRON INTEGRALS
          ********************
 TIME TO DO ORDINARY INTEGRALS=      0.03

 ======================================================================
      INFINITE-ORDER TWO-COMPONENT (IOTC) ONE-ELECTRON HAMILTONIAN
      WITH LOCAL UNITARY TRANSFORMATION (LUT) SCHEME
                                            CODED BY YUYA NAKAJIMA
             J. SEINO, H. NAKAI, J. CHEM. PHYS. 136, 244102 (2012)
             J. SEINO, H. NAKAI, J. CHEM. PHYS. 137, 144101 (2012)
             J. SEINO, H. NAKAI, J. CHEM. PHYS. 139, 034109 (2013)
        J. SEINO, H. NAKAI, INT. J. QUANTUM. CHEM. 115, 253 (2015)
 ======================================================================

 LUT-IOTC TRANSFORMATION FOR ATOM:    1
 THE SMALLEST EIGENVALUE OF THE OVERLAP MATRIX IS   5.23E-12
 THERE ARE     2 OVERLAP MATRIX EIGENVALUES LESS THAN   1.00E-10
 THE NUMBER OF LINEARLY INDEPENDENT ORBITALS KEPT IS   176

 LUT-IOTC TRANSFORMATION FOR ATOM:    2
 LUT-IOTC TRANSFORMATION FOR ATOM:    3
 LUT-IOTC TRANSFORMATION FOR ATOM:    4
 LUT-IOTC TRANSFORMATION FOR ATOM:    5
 LUT-IOTC TRANSFORMATION FOR ATOM:    6
 LUT-IOTC TRANSFORMATION FOR ATOM:    7
 LUT-IOTC TRANSFORMATION FOR ATOM:    8
 LUT-IOTC TRANSFORMATION FOR ATOM:    9
 LUT-IOTC TRANSFORMATION FOR ATOM:   10
 LUT-IOTC TRANSFORMATION FOR ATOM:   11

     -------------------------------------
     LUT-IOTC TRANSFORMATION FOR ATOM-PAIR
     -------------------------------------

                1 FE         2 C          3 C          4 C          5 O     

   1 FE      0.0000000    1.7648888 *  1.7648888 *  1.7648888 *  2.9173832 *
   2 C       1.7648888 *  0.0000000    3.0568771 *  3.0568771 *  1.1524944 *
   3 C       1.7648888 *  3.0568771 *  0.0000000    3.0568771 *  4.0957068  
   4 C       1.7648888 *  3.0568771 *  3.0568771 *  0.0000000    4.0957068  
   5 O       2.9173832 *  1.1524944 *  4.0957068    4.0957068    0.0000000  
   6 O       2.9173832 *  4.0957068    1.1524944 *  4.0957068    5.0530559  
   7 O       2.9173832 *  4.0957068    4.0957068    1.1524944 *  5.0530559  
   8 C       1.6770171 *  2.4346002 *  2.4346002 *  2.4346002 *  3.3650688 *
   9 C       1.6792016 *  2.4360811 *  2.4360811 *  2.4360811 *  3.3661054 *
  10 O       2.8440053 *  3.3471330 *  3.3471330 *  3.3471330 *  4.0742841  
  11 O       2.8426698 *  3.3459682 *  3.3459682 *  3.3459682 *  4.0732783  

                6 O          7 O          8 C          9 C         10 O     

   1 FE      2.9173832 *  2.9173832 *  1.6770171 *  1.6792016 *  2.8440053 *
   2 C       4.0957068    4.0957068    2.4346002 *  2.4360811 *  3.3471330 *
   3 C       1.1524944 *  4.0957068    2.4346002 *  2.4360811 *  3.3471330 *
   4 C       4.0957068    1.1524944 *  2.4346002 *  2.4360811 *  3.3471330 *
   5 O       5.0530559    5.0530559    3.3650688 *  3.3661054 *  4.0742841  
   6 O       0.0000000    5.0530559    3.3650688 *  3.3661054 *  4.0742841  
   7 O       5.0530559    0.0000000    3.3650688 *  3.3661054 *  4.0742841  
   8 C       3.3650688 *  3.3650688 *  0.0000000    3.3562187 *  1.1669882 *
   9 C       3.3661054 *  3.3661054 *  3.3562187 *  0.0000000    4.5232068  
  10 O       4.0742841    4.0742841    1.1669882 *  4.5232068    0.0000000  
  11 O       4.0732783    4.0732783    4.5196869    1.1634682 *  5.6866750  

               11 O     

   1 FE      2.8426698 *
   2 C       3.3459682 *
   3 C       3.3459682 *
   4 C       3.3459682 *
   5 O       4.0732783  
   6 O       4.0732783  
   7 O       4.0732783  
   8 C       4.5196869  
   9 C       1.1634682 *
  10 O       5.6866750  
  11 O       0.0000000  

  * ... TRANSFORMED ATOM PAIR (LESS THAN   3.500 ANGS.)

 TIME TO DO  RELATIVISTIC INTS=      0.41
 TIME TO DO   DIPOLE INTEGRALS=      0.02
 ...... END OF ONE-ELECTRON INTEGRALS ......
 CPU     0: STEP CPU TIME=     0.46 TOTAL CPU TIME=          1.2 (      0.0 MIN)
 TOTAL WALL CLOCK TIME=          3.2 SECONDS, CPU UTILIZATION IS    36.92%

          -------------
          GUESS OPTIONS
          -------------
          GUESS =MOREAD            NORB  =     369          NORDER=       1
          MIX   =       F          PRTMO =       F          PUNMO =       F
          TOLZ  = 1.0E-08          TOLE  = 1.0E-05
          SYMDEN=       F          PURIFY=       T

 INITIAL GUESS ORBITALS GENERATED BY MOREAD   ROUTINE.

 STATISTICS FOR GENERATION OF SYMMETRY ORBITAL -Q- MATRIX
 NUMBER OF CARTESIAN ATOMIC ORBITALS=        435
 NUMBER OF SPHERICAL CONTAMINANTS DROPPED=    66
 NUMBER OF LINEARLY DEPENDENT MOS DROPPED=     0
 TOTAL NUMBER OF MOS IN VARIATION SPACE=     369
 ORBITAL PURIFICATION WILL OCCUR

 SYMMETRIES FOR INITIAL GUESS ORBITALS FOLLOW.   BOTH SET(S).
    48 ORBITALS ARE OCCUPIED (   19 CORE ORBITALS).
     1=A        2=A        3=A        4=A        5=A        6=A        7=A   
     8=A        9=A       10=A       11=A       12=A       13=A       14=A   
    15=A       16=A       17=A       18=A       19=A       20=A       21=A   
    22=A       23=A       24=A       25=A       26=A       27=A       28=A   
    29=A       30=A       31=A       32=A       33=A       34=A       35=A   
    36=A       37=A       38=A       39=A       40=A       41=A       42=A   
    43=A       44=A       45=A       46=A       47=A       48=A       49=A   
    50=A       51=A       52=A       53=A       54=A       55=A       56=A   
    57=A       58=A       59=A       60=A       61=A       62=A       63=A   
    64=A       65=A       66=A       67=A       68=A       69=A       70=A   
    71=A       72=A       73=A       74=A       75=A       76=A       77=A   
    78=A       79=A       80=A       81=A       82=A       83=A       84=A   
    85=A       86=A       87=A       88=A       89=A       90=A       91=A   
    92=A       93=A       94=A       95=A       96=A       97=A       98=A   
    99=A      100=A      101=A      102=A      103=A      104=A      105=A   
   106=A      107=A      108=A      109=A      110=A      111=A      112=A   
   113=A      114=A      115=A      116=A      117=A      118=A      119=A   
   120=A      121=A      122=A      123=A      124=A      125=A      126=A   
   127=A      128=A      129=A      130=A      131=A      132=A      133=A   
   134=A      135=A      136=A      137=A      138=A      139=A      140=A   
   141=A      142=A      143=A      144=A      145=A      146=A      147=A   
   148=A      149=A      150=A      151=A      152=A      153=A      154=A   
   155=A      156=A      157=A      158=A      159=A      160=A      161=A   
   162=A      163=A      164=A      165=A      166=A      167=A      168=A   
   169=A      170=A      171=A      172=A      173=A      174=A      175=A   
   176=A      177=A      178=A      179=A      180=A      181=A      182=A   
   183=A      184=A      185=A      186=A      187=A      188=A      189=A   
   190=A      191=A      192=A      193=A      194=A      195=A      196=A   
   197=A      198=A      199=A      200=A      201=A      202=A      203=A   
   204=A      205=A      206=A      207=A      208=A      209=A      210=A   
   211=A      212=A      213=A      214=A      215=A      216=A      217=A   
   218=A      219=A      220=A      221=A      222=A      223=A      224=A   
   225=A      226=A      227=A      228=A      229=A      230=A      231=A   
   232=A      233=A      234=A      235=A      236=A      237=A      238=A   
   239=A      240=A      241=A      242=A      243=A      244=A      245=A   
   246=A      247=A      248=A      249=A      250=A      251=A      252=A   
   253=A      254=A      255=A      256=A      257=A      258=A      259=A   
   260=A      261=A      262=A      263=A      264=A      265=A      266=A   
   267=A      268=A      269=A      270=A      271=A      272=A      273=A   
   274=A      275=A      276=A      277=A      278=A      279=A      280=A   
   281=A      282=A      283=A      284=A      285=A      286=A      287=A   
   288=A      289=A      290=A      291=A      292=A      293=A      294=A   
   295=A      296=A      297=A      298=A      299=A      300=A      301=A   
   302=A      303=A      304=A      305=A      306=A      307=A      308=A   
   309=A      310=A      311=A      312=A      313=A      314=A      315=A   
   316=A      317=A      318=A      319=A      320=A      321=A      322=A   
   323=A      324=A      325=A      326=A      327=A      328=A      329=A   
   330=A      331=A      332=A      333=A      334=A      335=A      336=A   
   337=A      338=A      339=A      340=A      341=A      342=A      343=A   
   344=A      345=A      346=A      347=A      348=A      349=A      350=A   
   351=A      352=A      353=A      354=A      355=A      356=A      357=A   
   358=A      359=A      360=A      361=A      362=A      363=A      364=A   
   365=A      366=A      367=A      368=A      369=A   
 ...... END OF INITIAL ORBITAL SELECTION ......
 CPU     0: STEP CPU TIME=     6.70 TOTAL CPU TIME=          7.9 (      0.1 MIN)
 TOTAL WALL CLOCK TIME=         12.7 SECONDS, CPU UTILIZATION IS    62.01%

                    ----------------------
                    AO INTEGRAL TECHNOLOGY
                    ----------------------
     S,P,L SHELL ROTATED AXIS INTEGRALS, REPROGRAMMED BY
        KAZUYA ISHIMURA (IMS) AND JOSE SIERRA (SYNSTAR).
     S,P,D,L SHELL ROTATED AXIS INTEGRALS PROGRAMMED BY
        KAZUYA ISHIMURA (INSTITUTE FOR MOLECULAR SCIENCE).
     S,P,D,F,G SHELL TO TOTAL QUARTET ANGULAR MOMENTUM SUM 5,
        ERIC PROGRAM BY GRAHAM FLETCHER (ELORET AND NASA ADVANCED
        SUPERCOMPUTING DIVISION, AMES RESEARCH CENTER).
     S,P,D,F,G,L SHELL GENERAL RYS QUADRATURE PROGRAMMED BY
        MICHEL DUPUIS (PACIFIC NORTHWEST NATIONAL LABORATORY).

          --------------------
          2 ELECTRON INTEGRALS
          --------------------

 DIRECT SCF METHOD SKIPS INTEGRAL STORAGE ON DISK.
 DIRECT TRANSFORMATION SKIPS AO INTEGRAL STORAGE ON DISK.
  ...... END OF TWO-ELECTRON INTEGRALS .....
 STEP CPU TIME =     0.02 TOTAL CPU TIME =          7.9 (      0.1 MIN)
 TOTAL WALL CLOCK TIME=         16.0 SECONDS, CPU UTILIZATION IS    49.56%

          -----------------
          MCSCF CALCULATION
          -----------------

 ----- NUCLEAR ENERGY ----- =       825.5539120314

     -------------------------------------------------
     GMC-PT/GMC-QDPT or general MCSCF input parameters
     -------------------------------------------------
 # of frozen core orbs. =        19 ->         0
 # of doubly occ. orbs. =        24
 # of active      orbs. =         8
 # of virtual     orbs. =       318
 # of active electrons  =         9
 # of states in CI      =         5
 Highest state in CI    =         5
 kstate =  1 1 1 1 1
 avecoe =  0.200 0.200 0.200 0.200 0.200
 State symmetry           = A           
 Assigned symmetry number = 1

 <<<Act. MO sym.: 11111111

 <<<Division of 1-ext.:  0 0 0 0 0 0 0 0 0 0 0 0 0 0 0 0 0 0 0 0
 <<<Division of 2-ext.:  0 1 2 3 4 5 6 7 8 910111213141516171819

 *** Reference space

 Reference type: ORMAS (= Occupation restricted multiple active space)
 # of orbitals          =  8
 # of minimum electrons =  9
 # of maximum electrons =  9
 State symmetry    =    1 (input)
 2*Sz              =    1 (input)
 Spin multiplicity =    2 (input)
 Dimension of reference space =      3920  (from     11440 walks)

 Dimension of reference space =      3920  (from      3920 walks)

 <<<Ionized spaces for Ref-CI:
      0:         3920 /   -1-0:         8036 /  0-1-0:         9408

 EVALUATING EXCHANGE INTEGRALS FOR DIRECT INTEGRAL TRANSFORMATION
 SCHWARZ INEQUALITY OVERHEAD:     90407 INTEGRALS, T=        0.03

     --------------------------------------------
     PARTIAL TWO ELECTRON INTEGRAL TRANSFORMATION
     --------------------------------------------

 NUMBER OF CORE MOLECULAR ORBITALS     =   43
 NUMBER OF OCCUPIED MOLECULAR ORBITALS =   51
 TOTAL NUMBER OF MOLECULAR ORBITALS    =  369
 TOTAL NUMBER OF ATOMIC ORBITALS       =  435
 THRESHOLD FOR KEEPING TRANSFORMED 2E- INTEGRALS = 1.000E-09

 -------------------------------     ------------------------------
 DISTRIBUTED DATA TRANSFORMATION     PROGRAM WRITTEN BY G. FLETCHER
 -------------------------------     ------------------------------

 THE DISTRIBUTED MEMORY REQUIRED FOR THIS STEP IS MEMDDI=       400 MWORDS
 CREATING DISTRIBUTED STORAGE FOR [VIR OCC|VIR OCC] INTEGRALS
 DDI: Creating Array [0] - 189225 x 1326 = 250912350 words.
 CREATING DISTRIBUTED STORAGE FOR [VIR OCC|OCC OCC] INTEGRALS
 DDI: Creating Array [1] - 318 x 67626 = 21505068 words.
 CREATING DISTRIBUTED STORAGE FOR [OCC OCC|OCC OCC] INTEGRALS
 DDI: Creating Array [2] - 1326 x 1326 = 1758276 words.
 CREATING DISTRIBUTED STORAGE FOR [VIR VIR|OCC OCC] INTEGRALS
 DDI: Creating Array [3] - 94830 x 1326 = 125744580 words.
 FOR   20 PROCESSORS, THE REPLICATED MEMORY NEEDED IS    11103423 WORDS.
 SCHWARZ INEQUALITY OVERHEAD:     90407 INTEGRALS, T=        0.02

      DIRECT 4-INDEX TRANSFORMATION 
      SCHWARZ INEQUALITY TEST SKIPPED   18211714 INTEGRAL BLOCKS
 ----- FROZEN CORE ENERGY =     -2634.4360740386
 ... END OF INTEGRAL TRANSFORMATION ...
 CPU     0: STEP CPU TIME=    81.00 TOTAL CPU TIME=         88.9 (      1.5 MIN)
 TOTAL WALL CLOCK TIME=        101.4 SECONDS, CPU UTILIZATION IS    87.73%

     --------------------------------     -----------------------------
     MCHF NEWTON-RAPHSON OPTIMIZATION     CODE WRITTEN BY MICHEL DUPUIS
     --------------------------------     -----------------------------
     PARALLEL VERSION WRITTEN BY G. FLETCHER (ELORET)
     NASA ADVANCED SUPERCOMPUTING DIVISION, AMES RESEARCH CENTER

 NUMBER OF INDEPENDENT ORBITAL ROTATION PARAMETERS = 10398
 ..... DONE SOLVING NEWTON-RAPHSON EQUATIONS .....
 CPU     0: STEP CPU TIME=   496.84 TOTAL CPU TIME=        585.8 (      9.8 MIN)
 TOTAL WALL CLOCK TIME=        675.8 SECONDS, CPU UTILIZATION IS    86.68%
 ..... DONE WITH NTN-RPH ORBITAL ROTATIONS ..... 
 CPU     0: STEP CPU TIME=     0.14 TOTAL CPU TIME=        585.9 (      9.8 MIN)
 TOTAL WALL CLOCK TIME=        678.5 SECONDS, CPU UTILIZATION IS    86.35%
 MAXIMUM MEMORY USED BY NTN-RPH CODE WAS   1992646 WORDS.

 ITER     TOTAL ENERGY      DEL(E)  LAGRANGIAN ASYMMETRY   SQCDF  MICIT   DAMP
   1    -1835.036385513 -0.036385513  0.000738  120   20 1.333E-05  1   0.0000
   2    -1835.036393811 -0.000008298  0.000193  337   19 2.494E-05  1   0.0000
   3    -1835.036398420 -0.000004609  0.000337  338   18 8.144E-05  1   0.0000
   4    -1835.036413118 -0.000014698  0.000587  338   18 2.556E-04  1   0.0000
   5    -1835.036458110 -0.000044992  0.000944  338   18 7.399E-04  1   0.0000
   6    -1835.036580580 -0.000122470  0.001227  338   18 1.756E-03  1   0.0000
   7    -1835.036841141 -0.000260561  0.001319  356   17 3.010E-03  1   0.0000
   8    -1835.037239579 -0.000398438  0.001438   52   51 3.818E-03  1   0.0000
   9    -1835.037710094 -0.000470514  0.001499   52   51 4.106E-03  1   0.0000
  10    -1835.038199169 -0.000489076  0.001507   52   51 4.116E-03  1   0.0000
  11    -1835.038682025 -0.000482855  0.001493   52   51 4.011E-03  1   0.0000
  12    -1835.039149237 -0.000467213  0.001473   52   51 3.867E-03  1   0.0000
  13    -1835.039598175 -0.000448938  0.001452   52   51 3.717E-03  1   0.0000
  14    -1835.040029094 -0.000430918  0.001433   52   51 3.573E-03  1   0.0000
  15    -1835.040443342 -0.000414249  0.001416   52   51 3.439E-03  1   0.0000
  16    -1835.040842509 -0.000399167  0.001402   52   51 3.315E-03  1   0.0000
  17    -1835.041227990 -0.000385481  0.001389   52   51 3.197E-03  1   0.0000
  18    -1835.041600780 -0.000372790  0.001378   52   51 3.081E-03  1   0.0000
  19    -1835.041961377 -0.000360597  0.001366   52   51 2.965E-03  1   0.0000
  20    -1835.042309761 -0.000348384  0.001354   53   50 2.843E-03  1   0.0000
  21    -1835.042645436 -0.000335675  0.001339   52   51 2.714E-03  1   0.0000
  22    -1835.042967515 -0.000322079  0.001322   52   51 2.576E-03  1   0.0000
  23    -1835.043274844 -0.000307329  0.001300   52   51 2.428E-03  1   0.0000
  24    -1835.043566153 -0.000291309  0.001274   52   51 2.272E-03  1   0.0000
  25    -1835.043840219 -0.000274067  0.001243   52   51 2.109E-03  1   0.0000
  26    -1835.044096014 -0.000255794  0.001208   52   51 1.942E-03  1   0.0000
  27    -1835.044405455 -0.000309441  0.004802   49   16 5.607E-03  1   0.0000
  28    -1835.045203452 -0.000797997  0.001866   53   50 4.441E-03  1   0.0000
  29    -1835.045745440 -0.000541988  0.001751   53   50 3.823E-03  1   0.0000
  30    -1835.046210070 -0.000464629  0.001632  156   47 3.234E-03  1   0.0000
  31    -1835.046602950 -0.000392880  0.001581  156   47 2.710E-03  1   0.0000
  32    -1835.046931790 -0.000328839  0.001513  156   47 2.261E-03  1   0.0000
  33    -1835.047205430 -0.000273640  0.001434  156   47 1.884E-03  1   0.0000
  34    -1835.047432626 -0.000227196  0.001348  156   47 1.572E-03  1   0.0000
  35    -1835.047621343 -0.000188717  0.001261  156   47 1.316E-03  1   0.0000
  36    -1835.047778463 -0.000157120  0.001176  156   47 1.106E-03  1   0.0000
  37    -1835.047909746 -0.000131283  0.001094  156   47 9.331E-04  1   0.0000
  38    -1835.048019919 -0.000110173  0.001017  156   47 7.913E-04  1   0.0000
  39    -1835.048112819 -0.000092899  0.000945  156   47 6.742E-04  1   0.0000
  40    -1835.048191539 -0.000078721  0.000878  156   47 5.772E-04  1   0.0000
  41    -1835.048258575 -0.000067036  0.000817  156   47 4.963E-04  1   0.0000
  42    -1835.048315935 -0.000057360  0.000761  156   47 4.286E-04  1   0.0000
  43    -1835.048365243 -0.000049308  0.000710  156   47 3.717E-04  1   0.0000
  44    -1835.048407816 -0.000042573  0.000663  156   47 3.236E-04  1   0.0000
  45    -1835.048444726 -0.000036910  0.000620  156   47 2.827E-04  1   0.0000
  46    -1835.048476851 -0.000032125  0.000581  156   47 2.478E-04  1   0.0000
  47    -1835.048504913 -0.000028062  0.000545  156   47 2.179E-04  1   0.0000
  48    -1835.048529509 -0.000024596  0.000511  156   47 1.922E-04  1   0.0000
  49    -1835.048551134 -0.000021625  0.000481  156   47 1.699E-04  1   0.0000
  50    -1835.048570202 -0.000019068  0.000452  156   47 1.506E-04  1   0.0000
  51    -1835.048587061 -0.000016859  0.000426  156   47 1.338E-04  1   0.0000
  52    -1835.048602003 -0.000014943  0.000402  156   47 1.191E-04  1   0.0000
  53    -1835.048615278 -0.000013274  0.000380  156   47 1.062E-04  1   0.0000
  54    -1835.048627095 -0.000011817  0.000359  156   47 9.495E-05  1   0.0000
  55    -1835.048637637 -0.000010542  0.000339  156   47 8.499E-05  1   0.0000
  56    -1835.048647057 -0.000009420  0.000321  156   47 7.619E-05  1   0.0000
  57    -1835.048655488 -0.000008432  0.000304  156   47 6.840E-05  1   0.0000
  58    -1835.048663047 -0.000007559  0.000288  156   47 6.148E-05  1   0.0000
  59    -1835.048669833 -0.000006786  0.000273  156   47 5.534E-05  1   0.0000
  60    -1835.048675933 -0.000006100  0.000259  156   47 4.986E-05  1   0.0000
  61    -1835.048681423 -0.000005490  0.000246  156   47 4.497E-05  1   0.0000
  62    -1835.048686370 -0.000004947  0.000233  156   47 4.060E-05  1   0.0000
  63    -1835.048690831 -0.000004462  0.000222  156   47 3.668E-05  1   0.0000
  64    -1835.048694860 -0.000004028  0.000211  156   47 3.318E-05  1   0.0000
  65    -1835.048698500 -0.000003640  0.000201  157   48 3.002E-05  1   0.0000
  66    -1835.048701792 -0.000003292  0.000191  157   48 2.719E-05  1   0.0000
  67    -1835.048704771 -0.000002979  0.000182  157   48 2.464E-05  1   0.0000
  68    -1835.048707469 -0.000002698  0.000173  157   48 2.235E-05  1   0.0000
  69    -1835.048709915 -0.000002446  0.000165  157   48 2.028E-05  1   0.0000
  70    -1835.048712133 -0.000002218  0.000157  157   48 1.841E-05  1   0.0000
  71    -1835.048714145 -0.000002012  0.000150  157   48 1.672E-05  1   0.0000
  72    -1835.048715972 -0.000001827  0.000143  157   48 1.519E-05  1   0.0000
  73    -1835.048717631 -0.000001659  0.000136  157   48 1.381E-05  1   0.0000
  74    -1835.048719138 -0.000001508  0.000130  157   48 1.256E-05  1   0.0000
  75    -1835.048720509 -0.000001371  0.000124  157   48 1.142E-05  1   0.0000
  76    -1835.048721755 -0.000001246  0.000118  157   48 1.040E-05  1   0.0000
  77    -1835.048722889 -0.000001134  0.000113  157   48 9.464E-06  1   0.0000
  78    -1835.048723921 -0.000001032  0.000107  157   48 8.618E-06  1   0.0000
  79    -1835.048724861 -0.000000939  0.000103  157   48 7.849E-06  1   0.0000
  80    -1835.048725716 -0.000000855  0.000098  157   48 7.151E-06  1   0.0000
  81    -1835.048726495 -0.000000779  0.000093  157   48 6.517E-06  1   0.0000
  82    -1835.048727205 -0.000000710  0.000089  157   48 5.940E-06  1   0.0000
  83    -1835.048727852 -0.000000647  0.000085  157   48 5.415E-06  1   0.0000
  84    -1835.048728442 -0.000000590  0.000081  157   48 4.932E-06  1   0.0000
  85    -1835.048728979 -0.000000537  0.000078  157   48 4.506E-06  1   0.0000
  86    -1835.048729469 -0.000000490  0.000074  157   48 4.109E-06  1   0.0000
  87    -1835.048729917 -0.000000447  0.000071  157   48 3.741E-06  1   0.0000
  88    -1835.048730324 -0.000000407  0.000068  157   48 3.423E-06  1   0.0000
  89    -1835.048730696 -0.000000372  0.000065  157   48 3.122E-06  1   0.0000
  90    -1835.048731036 -0.000000340  0.000062  157   48 2.801E-06  1   0.0000
  91    -1835.048731344 -0.000000308  0.000059  157   48 2.650E-06  1   0.0000
  92    -1835.048731628 -0.000000284  0.000056  157   48 2.377E-06  1   0.0000
  93    -1835.048731886 -0.000000258  0.000054  157   48 2.169E-06  1   0.0000
  94    -1835.048732122 -0.000000236  0.000052  157   48 1.981E-06  1   0.0000
  95    -1835.048732338 -0.000000215  0.000049  157   48 1.809E-06  1   0.0000
  96    -1835.048732534 -0.000000197  0.000047  157   48 1.651E-06  1   0.0000
  97    -1835.048732714 -0.000000180  0.000045  157   48 1.509E-06  1   0.0000
  98    -1835.048732878 -0.000000164  0.000043  157   48 1.378E-06  1   0.0000
  99    -1835.048733028 -0.000000150  0.000041  157   48 1.259E-06  1   0.0000
 100    -1835.048733164 -0.000000137  0.000039  157   48 1.151E-06  1   0.0000
 EXCESSIVE NUMBER OF ITERATIONS...
 MCSCF IS NOT CONVERGED!
 A $VEC GROUP OF CURRENT MO-S IS IN THE PUNCH FILE
 USE THIS WITH GUESS=MOREAD TO RESTART THIS RUN

 FINAL MCSCF ENERGY IS        0.0000000000 AFTER 100 ITERATIONS

 -MCCI- BASED ON OPTIMIZED ORBITALS
 ----------------------------------

 PLEASE NOTE: IF THE ACTIVE ORBITALS ARE CANONICALIZED BELOW,
 THE FOLLOWING CI EXPANSION COEFFICIENTS AND THE DENSITY DO NOT
 CORRESPOND TO THE PRINTED ORBITALS.  THE PRINTED EXPANSIONS MATCH
 THE ORBITALS USED DURING THE LAST ITERATION.  IF YOU WISH TO SEE
 CI EXPANSIONS BASED ON THE CANONICAL (OR NATURAL) ORBITALS, YOU
 MUST RUN A CI CALCULATION WITH THAT ORBITAL CHOICE READ IN $VEC.

 Averaged energy =       0.000000000

 State #    1  Energy =   -1835.133284054  S =  0.500

      Det      Coef    Occupancy (Ignoring core)
      ---      ----    --------- --------- -----
        1   -0.459030  1111100011110000
       57    0.789590  1111100011101000
       63   -0.072876  1111001011101000
       64   -0.066005  1110101011101000
       65   -0.072704  1101101011101000
       66   -0.052002  1011101011101000
       78   -0.066030  1111000111101000
       79    0.071386  1110100111101000
       80   -0.052769  1101100111101000
       81    0.070010  1011100111101000
      841   -0.111441  1111100011100010
      953   -0.056131  1111100010110010
     1065    0.100472  1111100011001010
     1073    0.052564  1101101011001010
     1121    0.057560  1111100010101010
     2185    0.061713  1111100011001001
     2241   -0.087118  1111100010101001
     2265    0.051928  1011100110101001

 State #    2  Energy =   -1835.133179724  S =  0.500

      Det      Coef    Occupancy (Ignoring core)
      ---      ----    --------- --------- -----
        1   -0.789614  1111100011110000
        7    0.071513  1111001011110000
        8    0.066324  1110101011110000
        9    0.070057  1101101011110000
       10    0.052820  1011101011110000
       22    0.065747  1111000111110000
       23   -0.072721  1110100111110000
       24    0.051894  1101100111110000
       25   -0.072596  1011100111110000
       57   -0.459118  1111100011101000
      897   -0.087335  1111100011010010
      905   -0.051923  1101101011010010
      953   -0.061914  1111100010110010
     1961    0.111116  1111100011100001
     2017   -0.057371  1111100011010001
     2073    0.100189  1111100010110001
     2097   -0.052611  1011100110110001
     2185   -0.055937  1111100011001001

 State #    3  Energy =   -1835.025226390  S =  0.500

      Det      Coef    Occupancy (Ignoring core)
      ---      ----    --------- --------- -----
      113   -0.599366  1111100011011000
      119    0.054311  1111001011011000
      122    0.062285  1011101011011000
      135   -0.054204  1110100111011000
      169    0.688313  1111100010111000
      175   -0.061836  1111001010111000
      176   -0.056738  1110101010111000
      177   -0.080104  1101101010111000
      190   -0.056494  1111000110111000
      191    0.061909  1110100110111000
      897    0.055346  1111100011010010
      953   -0.059497  1111100010110010
     1121   -0.057164  1111100010101010
     1233   -0.142389  1111100010011010
     1238   -0.066459  0111110010011010
     1241   -0.075686  1101101010011010
     1242   -0.056993  1011101010011010
     1257    0.059257  1011100110011010
     1905   -0.051190  1111100000011110
     2073   -0.057488  1111100010110001
     2185   -0.054661  1111100011001001
     2241    0.062770  1111100010101001

 State #    4  Energy =   -1835.025019951  S =  0.500

      Det      Coef    Occupancy (Ignoring core)
      ---      ----    --------- --------- -----
      113   -0.688389  1111100011011000
      119    0.062044  1111001011011000
      120    0.056898  1110101011011000
      134    0.056572  1111000111011000
      135   -0.061752  1110100111011000
      137   -0.080109  1011100111011000
      169   -0.599444  1111100010111000
      175    0.054450  1111001010111000
      191   -0.054305  1110100110111000
      192    0.062250  1101100110111000
      897    0.062898  1111100011010010
      953    0.054934  1111100010110010
     1065    0.057899  1111100011001010
     2017    0.056987  1111100011010001
     2185   -0.059452  1111100011001001
     2241   -0.055305  1111100010101001
     2353    0.142358  1111100010011001
     2358    0.066363  0111110010011001
     2361    0.059238  1101101010011001
     2376    0.057033  1101100110011001
     2377   -0.075731  1011100110011001
     3025    0.051089  1111100000011101

 State #    5  Energy =   -1834.926955704  S =  0.500

      Det      Coef    Occupancy (Ignoring core)
      ---      ----    --------- --------- -----
        2    0.376996  1111010011110000
        3    0.527471  1110110011110000
       16   -0.050737  1100111011110000
       27    0.080723  1110010111110000
       58    0.528623  1111010011101000
       59   -0.381061  1110110011101000
       68   -0.081417  1110011011101000
       85    0.050397  1011010111101000
      843    0.080037  1110110011100010
      899    0.060765  1110110011010010
      955    0.057531  1110110010110010
     1066    0.061879  1111010011001010
     1067   -0.058465  1110110011001010
     1962   -0.079505  1111010011100001
     2074   -0.057750  1111010010110001
     2075   -0.061298  1110110010110001
     2186    0.057354  1111010011001001
     2242   -0.060647  1111010010101001

 DENSITY MATRIX OVER ACTIVE MO-S

             1           2           3           4           5

    1    1.9684536
    2   -0.0000032   1.7301576
    3    0.0001143   0.0000578   1.7301388
    4   -0.0004422  -0.0230226   0.0023126   1.5686620
    5    0.0034087  -0.0023015  -0.0230236  -0.0009194   1.5701757
    6    0.0179365   0.0000039  -0.0005106   0.0002003  -0.0014593
    7   -0.0000667   0.1010074  -0.1362123   0.1238766  -0.1362507
    8   -0.0000524  -0.1357997  -0.1006057  -0.1357161  -0.1233194

             6           7           8

    6    0.2431929
    7   -0.0002433   0.0947847
    8   -0.0001649  -0.0000265   0.0944347

 FORMING THE "STANDARD FOCK OPERATOR" IN DIRECT AO INTEGRAL MODE...
 ONLY THE   43 CORE AND  318 VIRTUAL ORBITALS WILL BE CANONICALIZED

          ----------------------
          MCSCF NATURAL ORBITALS
          ----------------------

                      1          2          3          4          5
                 -263.9017   -32.6931   -27.7662   -27.7560   -27.7560
                     A          A          A          A          A   
    1  FE 1  S    0.997432  -0.320543  -0.000006   0.000000  -0.000000
    2  FE 1  S    0.011930   1.048357   0.000021  -0.000002   0.000002
    3  FE 1  S    0.003430   0.027453   0.000005  -0.000000   0.000000
    4  FE 1  S   -0.007235  -0.014232  -0.000003   0.000000  -0.000000
    5  FE 1  S    0.002272   0.004565  -0.000005   0.000000   0.000001
    6  FE 1  S   -0.003518  -0.010814   0.000002  -0.000000  -0.000001
    7  FE 1  S    0.000701   0.001974   0.000015  -0.000000  -0.000001
    8  FE 1  S   -0.000079  -0.000272  -0.000001  -0.000000  -0.000000
    9  FE 1  X    0.000000   0.000002  -0.000062   0.725301  -0.684684
   10  FE 1  Y    0.000000  -0.000001  -0.000225   0.684684   0.725301
   11  FE 1  Z    0.000000  -0.000012   0.997465   0.000199   0.000121
   12  FE 1  X   -0.000000   0.000000  -0.000000   0.000354  -0.000334
   13  FE 1  Y   -0.000000   0.000000  -0.000000   0.000334   0.000354
   14  FE 1  Z   -0.000000  -0.000007   0.000569   0.000000   0.000000
   15  FE 1  X    0.000000  -0.000000  -0.000001   0.006728  -0.006352
   16  FE 1  Y    0.000000   0.000000  -0.000002   0.006351   0.006728
   17  FE 1  Z    0.000000  -0.000007   0.008875   0.000002   0.000001
   18  FE 1  X   -0.000000   0.000001   0.000000  -0.001987   0.001875
   19  FE 1  Y   -0.000000   0.000000   0.000000  -0.001876  -0.001986
   20  FE 1  Z   -0.000001  -0.000011  -0.002366  -0.000000  -0.000000
   21  FE 1  X    0.000000  -0.000001  -0.000000   0.001098  -0.001035
   22  FE 1  Y    0.000000  -0.000000  -0.000000   0.001036   0.001096
   23  FE 1  Z    0.000007   0.000031   0.000765   0.000000  -0.000000
   24  FE 1  X   -0.000000  -0.000000  -0.000000   0.000711  -0.000671
   25  FE 1  Y    0.000000  -0.000002   0.000000   0.000672   0.000711
   26  FE 1  Z   -0.000002  -0.000009   0.000464   0.000000  -0.000000
   27  FE 1 XX    0.000005   0.000049   0.000024  -0.000026   0.000024
   28  FE 1 YY    0.000005   0.000050   0.000024   0.000025  -0.000025
   29  FE 1 ZZ   -0.000010  -0.000099  -0.000048   0.000001   0.000001
   30  FE 1 XY    0.000000  -0.000011   0.000001   0.000028   0.000031
   31  FE 1 XZ    0.000000   0.000000   0.000000  -0.000011   0.000011
   32  FE 1 YZ    0.000000   0.000000  -0.000002  -0.000011  -0.000011
   33  FE 1 XX   -0.000017   0.000234  -0.000004   0.000101  -0.000095
   34  FE 1 YY   -0.000017   0.000234  -0.000004  -0.000101   0.000096
   35  FE 1 ZZ    0.000034  -0.000467   0.000007   0.000000  -0.000000
   36  FE 1 XY   -0.000000  -0.000001   0.000000  -0.000111  -0.000118
   37  FE 1 XZ    0.000000   0.000000  -0.000000   0.000002  -0.000002
   38  FE 1 YZ    0.000000   0.000000   0.000000   0.000002   0.000002
   39  FE 1 XX    0.000134   0.000394   0.000007  -0.000283   0.000268
   40  FE 1 YY    0.000134   0.000395   0.000007   0.000283  -0.000268
   41  FE 1 ZZ   -0.000268  -0.000789  -0.000014  -0.000000   0.000000
   42  FE 1 XY    0.000000  -0.000000  -0.000000   0.000309   0.000328
   43  FE 1 XZ   -0.000000  -0.000000   0.000000   0.000000  -0.000000
   44  FE 1 YZ   -0.000000  -0.000000  -0.000000   0.000000   0.000000
   45  FE 1 XX   -0.000047   0.000040   0.000002   0.000557  -0.000527
   46  FE 1 YY   -0.000047   0.000041   0.000002  -0.000558   0.000525
   47  FE 1 ZZ    0.000095  -0.000080  -0.000003   0.000001   0.000001
   48  FE 1 XY   -0.000000  -0.000004   0.000000  -0.000608  -0.000644
   49  FE 1 XZ    0.000000   0.000000  -0.000000  -0.000001   0.000001
   50  FE 1 YZ    0.000000   0.000000  -0.000000  -0.000001  -0.000002
   51  FE 1 XXX   0.000016   0.000088  -0.000004  -0.000111   0.000105
   52  FE 1 YYY   0.000000   0.000000   0.000000  -0.000106  -0.000110
   53  FE 1 ZZZ  -0.000000   0.000000  -0.000203  -0.000000   0.000000
   54  FE 1 XXY   0.000000   0.000000   0.000000  -0.000046  -0.000050
   55  FE 1 XXZ   0.000000  -0.000000   0.000136  -0.000003   0.000003
   56  FE 1 YYX  -0.000022  -0.000118   0.000005  -0.000050   0.000045
   57  FE 1 YYZ   0.000000  -0.000000   0.000136   0.000003  -0.000003
   58  FE 1 ZZX  -0.000000  -0.000000  -0.000000   0.000199  -0.000187
   59  FE 1 ZZY  -0.000000  -0.000000  -0.000000   0.000188   0.000198
   60  FE 1 XYZ  -0.000000  -0.000000   0.000001   0.000004   0.000004
   61  FE 1 XXX  -0.000113  -0.000442   0.000002   0.000044  -0.000042
   62  FE 1 YYY  -0.000000   0.000000  -0.000000   0.000042   0.000044
   63  FE 1 ZZZ   0.000001   0.000004  -0.000114  -0.000000  -0.000000
   64  FE 1 XXY  -0.000000   0.000000  -0.000000   0.000018   0.000020
   65  FE 1 XXZ  -0.000000  -0.000003   0.000077   0.000000  -0.000000
   66  FE 1 YYX   0.000152   0.000593  -0.000003   0.000020  -0.000018
   67  FE 1 YYZ  -0.000000  -0.000003   0.000077  -0.000000   0.000000
   68  FE 1 ZZX   0.000000   0.000000   0.000000  -0.000079   0.000074
   69  FE 1 ZZY   0.000000  -0.000000   0.000000  -0.000074  -0.000078
   70  FE 1 XYZ   0.000000   0.000000  -0.000000  -0.000000  -0.000000
   71  FE 1XXXX  -0.000018  -0.000092  -0.000000   0.000002  -0.000003
   72  FE 1YYYY  -0.000018  -0.000092  -0.000000   0.000001  -0.000001
   73  FE 1ZZZZ  -0.000047  -0.000246  -0.000000  -0.000000  -0.000000
   74  FE 1XXXY   0.000000   0.000000  -0.000000   0.000002   0.000003
   75  FE 1XXXZ   0.000000  -0.000001   0.000003   0.000000  -0.000000
   76  FE 1YYYX  -0.000000  -0.000000   0.000000  -0.000003  -0.000004
   77  FE 1YYYZ   0.000000  -0.000000   0.000000   0.000000   0.000000
   78  FE 1ZZZX  -0.000000  -0.000000   0.000000  -0.000000   0.000000
   79  FE 1ZZZY   0.000000   0.000000  -0.000000  -0.000000  -0.000000
   80  FE 1XXYY  -0.000010  -0.000054  -0.000000  -0.000003   0.000004
   81  FE 1XXZZ   0.000041   0.000216   0.000000  -0.000001   0.000001
   82  FE 1YYZZ   0.000041   0.000216   0.000000   0.000001  -0.000001
   83  FE 1XXYZ   0.000000  -0.000000   0.000000   0.000000   0.000000
   84  FE 1YYXZ  -0.000000   0.000001  -0.000004   0.000000  -0.000000
   85  FE 1ZZXY   0.000000   0.000000  -0.000000   0.000001   0.000001
   86  C  2  S   -0.000031  -0.000198  -0.000005   0.000003   0.000013
   87  C  2  S   -0.000193  -0.000519   0.000011   0.000019   0.000082
   88  C  2  S    0.000536   0.001986   0.000011  -0.000124  -0.000523
   89  C  2  S    0.000037   0.000142   0.000005  -0.000140  -0.000587
   90  C  2  X   -0.000014   0.000004   0.000004  -0.000001  -0.000007
   91  C  2  Y    0.000024  -0.000007  -0.000007   0.000004   0.000012
   92  C  2  Z    0.000000   0.000000   0.000006  -0.000000  -0.000000
   93  C  2  X    0.000113   0.000580   0.000003   0.000008  -0.000037
   94  C  2  Y   -0.000196  -0.001006  -0.000005   0.000023   0.000054
   95  C  2  Z    0.000000   0.000001   0.000000  -0.000000  -0.000001
   96  C  2  X   -0.000107  -0.000378   0.000001  -0.000054  -0.000445
   97  C  2  Y    0.000185   0.000655  -0.000001   0.000207   0.000743
   98  C  2  Z    0.000000   0.000000   0.000028  -0.000000  -0.000000
   99  C  2 XX    0.000002   0.000008   0.000000  -0.000002  -0.000000
  100  C  2 YY   -0.000005  -0.000019  -0.000000   0.000003   0.000002
  101  C  2 ZZ    0.000004   0.000011  -0.000000  -0.000000  -0.000002
  102  C  2 XY    0.000007   0.000027   0.000000   0.000001  -0.000003
  103  C  2 XZ   -0.000000   0.000000   0.000000  -0.000000  -0.000000
  104  C  2 YZ    0.000000  -0.000000  -0.000000   0.000000   0.000000
  105  C  2 XX   -0.000026  -0.000085   0.000000   0.000025   0.000022
  106  C  2 YY    0.000142   0.000473  -0.000000  -0.000044  -0.000103
  107  C  2 ZZ   -0.000116  -0.000388  -0.000000   0.000019   0.000081
  108  C  2 XY   -0.000168  -0.000558   0.000001   0.000019   0.000137
  109  C  2 XZ   -0.000000   0.000000  -0.000021  -0.000000  -0.000000
  110  C  2 YZ    0.000000  -0.000001   0.000037   0.000000   0.000001
  111  C  2 XXX  -0.000037  -0.000166   0.000000  -0.000010  -0.000043
  112  C  2 YYY  -0.000028  -0.000124   0.000000  -0.000007  -0.000028
  113  C  2 ZZZ  -0.000000  -0.000000  -0.000003   0.000000   0.000000
  114  C  2 XXY  -0.000013  -0.000056   0.000000  -0.000002  -0.000013
  115  C  2 XXZ   0.000000   0.000000   0.000000   0.000000  -0.000000
  116  C  2 YYX   0.000079   0.000351  -0.000001   0.000021   0.000087
  117  C  2 YYZ   0.000000   0.000000   0.000004  -0.000000  -0.000000
  118  C  2 ZZX  -0.000029  -0.000128   0.000000  -0.000007  -0.000029
  119  C  2 ZZY   0.000050   0.000222  -0.000000   0.000012   0.000051
  120  C  2 XYZ   0.000000  -0.000000  -0.000004   0.000000   0.000000
  121  C  3  S   -0.000031  -0.000197  -0.000005  -0.000013  -0.000004
  122  C  3  S   -0.000193  -0.000521   0.000010  -0.000081  -0.000025
  123  C  3  S    0.000536   0.001984   0.000011   0.000516   0.000154
  124  C  3  S    0.000037   0.000142   0.000004   0.000579   0.000173
  125  C  3  X   -0.000014   0.000003   0.000004   0.000007   0.000001
  126  C  3  Y   -0.000024   0.000005   0.000007   0.000011   0.000004
  127  C  3  Z    0.000000   0.000000   0.000006   0.000000   0.000000
  128  C  3  X    0.000113   0.000580   0.000003   0.000038  -0.000006
  129  C  3  Y    0.000196   0.001004   0.000005   0.000055   0.000026
  130  C  3  Z   -0.000000   0.000001   0.000001   0.000001   0.000000
  131  C  3  X   -0.000107  -0.000378   0.000001   0.000441   0.000079
  132  C  3  Y   -0.000184  -0.000654   0.000001   0.000730   0.000249
  133  C  3  Z    0.000000   0.000000   0.000028   0.000000   0.000000
  134  C  3 XX    0.000002   0.000008   0.000000   0.000000   0.000002
  135  C  3 YY   -0.000005  -0.000019  -0.000000  -0.000002  -0.000003
  136  C  3 ZZ    0.000004   0.000011  -0.000000   0.000001   0.000000
  137  C  3 XY   -0.000007  -0.000027  -0.000000  -0.000003   0.000000
  138  C  3 XZ   -0.000000   0.000000   0.000000   0.000000   0.000000
  139  C  3 YZ   -0.000000   0.000000   0.000001   0.000000   0.000000
  140  C  3 XX   -0.000026  -0.000084   0.000000  -0.000021  -0.000026
  141  C  3 YY    0.000142   0.000473  -0.000000   0.000100   0.000050
  142  C  3 ZZ   -0.000116  -0.000388   0.000000  -0.000080  -0.000024
  143  C  3 XY    0.000168   0.000558  -0.000001   0.000136   0.000027
  144  C  3 XZ   -0.000000   0.000000  -0.000021   0.000000   0.000000
  145  C  3 YZ   -0.000000   0.000001  -0.000037   0.000001   0.000000
  146  C  3 XXX  -0.000037  -0.000166   0.000000   0.000042   0.000013
  147  C  3 YYY   0.000028   0.000124  -0.000000  -0.000028  -0.000009
  148  C  3 ZZZ  -0.000000  -0.000000  -0.000004  -0.000000  -0.000000
  149  C  3 XXY   0.000013   0.000056  -0.000000  -0.000013  -0.000003
  150  C  3 XXZ   0.000000   0.000000   0.000000   0.000000  -0.000000
  151  C  3 YYX   0.000079   0.000351  -0.000001  -0.000085  -0.000026
  152  C  3 YYZ   0.000000   0.000000   0.000004   0.000000   0.000000
  153  C  3 ZZX  -0.000029  -0.000128   0.000000   0.000029   0.000009
  154  C  3 ZZY  -0.000050  -0.000222   0.000000   0.000050   0.000015
  155  C  3 XYZ  -0.000000   0.000000   0.000004   0.000000   0.000000
  156  C  4  S   -0.000031  -0.000197  -0.000005   0.000010  -0.000009
  157  C  4  S   -0.000193  -0.000520   0.000010   0.000061  -0.000058
  158  C  4  S    0.000536   0.001985   0.000011  -0.000392   0.000369
  159  C  4  S    0.000037   0.000142   0.000004  -0.000439   0.000414
  160  C  4  X    0.000028  -0.000007  -0.000008   0.000010  -0.000009
  161  C  4  Y    0.000000  -0.000001   0.000000   0.000001   0.000001
  162  C  4  Z    0.000000   0.000000   0.000006  -0.000000   0.000000
  163  C  4  X   -0.000226  -0.001160  -0.000006   0.000051  -0.000047
  164  C  4  Y    0.000000  -0.000001   0.000000   0.000013   0.000014
  165  C  4  Z    0.000000   0.000001   0.000001  -0.000001   0.000001
  166  C  4  X    0.000213   0.000756  -0.000001   0.000647  -0.000611
  167  C  4  Y   -0.000000  -0.000000  -0.000000   0.000040   0.000043
  168  C  4  Z    0.000000   0.000000   0.000028  -0.000000   0.000000
  169  C  4 XX   -0.000009  -0.000032  -0.000000   0.000003  -0.000003
  170  C  4 YY    0.000005   0.000021   0.000000  -0.000002   0.000002
  171  C  4 ZZ    0.000004   0.000011  -0.000000  -0.000001   0.000001
  172  C  4 XY   -0.000000   0.000000  -0.000000   0.000002   0.000002
  173  C  4 XZ    0.000000  -0.000000  -0.000001   0.000000  -0.000000
  174  C  4 YZ    0.000000   0.000000  -0.000000  -0.000000  -0.000000
  175  C  4 XX    0.000226   0.000752  -0.000001  -0.000131   0.000123
  176  C  4 YY   -0.000110  -0.000364   0.000001   0.000070  -0.000066
  177  C  4 ZZ   -0.000116  -0.000388  -0.000000   0.000060  -0.000057
  178  C  4 XY   -0.000000   0.000000  -0.000000  -0.000018  -0.000019
  179  C  4 XZ    0.000000  -0.000001   0.000043   0.000000  -0.000000
  180  C  4 YZ   -0.000000  -0.000000  -0.000000  -0.000000  -0.000000
  181  C  4 XXX  -0.000086  -0.000382   0.000001  -0.000069   0.000065
  182  C  4 YYY   0.000000   0.000000  -0.000000   0.000000   0.000000
  183  C  4 ZZZ  -0.000000  -0.000000  -0.000003   0.000000  -0.000000
  184  C  4 XXY  -0.000000  -0.000000   0.000000  -0.000001  -0.000000
  185  C  4 XXZ   0.000000   0.000000   0.000006  -0.000000   0.000000
  186  C  4 YYX   0.000058   0.000255  -0.000001   0.000048  -0.000046
  187  C  4 YYZ   0.000000  -0.000000  -0.000002   0.000000  -0.000000
  188  C  4 ZZX   0.000058   0.000257  -0.000000   0.000044  -0.000041
  189  C  4 ZZY   0.000000   0.000000  -0.000000  -0.000000  -0.000000
  190  C  4 XYZ   0.000000  -0.000000  -0.000000  -0.000000  -0.000000
  191  O  5  S   -0.000000   0.000008   0.000001  -0.000001  -0.000003
  192  O  5  S    0.000017   0.000040  -0.000001   0.000001   0.000003
  193  O  5  S    0.000005   0.000198  -0.000002   0.000071   0.000299
  194  O  5  S   -0.000370  -0.001326  -0.000002  -0.000136  -0.000574
  195  O  5  X   -0.000001  -0.000035  -0.000002   0.000001  -0.000000
  196  O  5  Y    0.000003   0.000062   0.000003   0.000000  -0.000000
  197  O  5  Z   -0.000000  -0.000001   0.000000   0.000000   0.000001
  198  O  5  X    0.000029   0.000115  -0.000002   0.000019   0.000035
  199  O  5  Y   -0.000051  -0.000198   0.000004  -0.000009  -0.000065
  200  O  5  Z   -0.000000  -0.000002  -0.000013   0.000000   0.000001
  201  O  5  X   -0.000054  -0.000197  -0.000001  -0.000024  -0.000052
  202  O  5  Y    0.000093   0.000342   0.000002   0.000016   0.000096
  203  O  5  Z   -0.000000  -0.000001  -0.000029   0.000000   0.000001
  204  O  5 XX   -0.000001  -0.000005   0.000000   0.000000  -0.000002
  205  O  5 YY    0.000006   0.000024  -0.000000   0.000001   0.000009
  206  O  5 ZZ   -0.000005  -0.000019   0.000000  -0.000002  -0.000008
  207  O  5 XY   -0.000007  -0.000028   0.000000  -0.000003  -0.000010
  208  O  5 XZ    0.000000  -0.000000   0.000001  -0.000000   0.000000
  209  O  5 YZ   -0.000000   0.000000  -0.000002  -0.000000  -0.000000
  210  O  5 XX   -0.000004  -0.000016   0.000000  -0.000003   0.000001
  211  O  5 YY    0.000020   0.000077  -0.000000   0.000000  -0.000012
  212  O  5 ZZ   -0.000016  -0.000062   0.000000   0.000003   0.000011
  213  O  5 XY   -0.000024  -0.000093   0.000001   0.000005   0.000011
  214  O  5 XZ   -0.000000  -0.000000  -0.000008   0.000000   0.000000
  215  O  5 YZ    0.000000   0.000000   0.000014  -0.000000  -0.000000
  216  O  5 XXX  -0.000007  -0.000023   0.000000  -0.000001  -0.000002
  217  O  5 YYY  -0.000005  -0.000017   0.000000  -0.000001   0.000001
  218  O  5 ZZZ   0.000000   0.000000   0.000001  -0.000000  -0.000000
  219  O  5 XXY  -0.000002  -0.000007   0.000000   0.000002  -0.000000
  220  O  5 XXZ  -0.000000  -0.000000  -0.000000   0.000000   0.000000
  221  O  5 YYX   0.000014   0.000048  -0.000000   0.000000   0.000002
  222  O  5 YYZ  -0.000000  -0.000000  -0.000001  -0.000000   0.000000
  223  O  5 ZZX  -0.000005  -0.000017   0.000000   0.000000   0.000000
  224  O  5 ZZY   0.000009   0.000030  -0.000000  -0.000000  -0.000001
  225  O  5 XYZ   0.000000   0.000000   0.000001  -0.000000  -0.000000
  226  O  6  S   -0.000000   0.000008   0.000001   0.000003   0.000001
  227  O  6  S    0.000017   0.000040  -0.000001  -0.000003  -0.000001
  228  O  6  S    0.000005   0.000198  -0.000002  -0.000293  -0.000088
  229  O  6  S   -0.000370  -0.001325  -0.000002   0.000566   0.000170
  230  O  6  X   -0.000001  -0.000036  -0.000001   0.000000  -0.000001
  231  O  6  Y   -0.000003  -0.000061  -0.000003  -0.000000   0.000001
  232  O  6  Z   -0.000000  -0.000001   0.000000  -0.000001  -0.000000
  233  O  6  X    0.000029   0.000114  -0.000002  -0.000033  -0.000021
  234  O  6  Y    0.000051   0.000199  -0.000004  -0.000064  -0.000013
  235  O  6  Z   -0.000000  -0.000002  -0.000014  -0.000001  -0.000000
  236  O  6  X   -0.000054  -0.000198  -0.000001   0.000051   0.000027
  237  O  6  Y   -0.000093  -0.000341  -0.000002   0.000095   0.000022
  238  O  6  Z   -0.000000  -0.000001  -0.000030  -0.000001  -0.000000
  239  O  6 XX   -0.000001  -0.000005   0.000000   0.000002  -0.000000
  240  O  6 YY    0.000006   0.000024  -0.000000  -0.000009  -0.000002
  241  O  6 ZZ   -0.000005  -0.000019   0.000000   0.000007   0.000002
  242  O  6 XY    0.000007   0.000029  -0.000000  -0.000010  -0.000004
  243  O  6 XZ    0.000000  -0.000000   0.000001  -0.000000   0.000000
[...]
-rw-r----- 1 bjb2chen bjb2chen        0 Apr  9 02:22 /localscratch/bjb2chen.18562723.0/FeCOcat_SPK_gmcpt_C1_5st_diab_0.05_+x1q29.F92.015
-rw-r----- 1 bjb2chen bjb2chen        0 Apr  9 02:22 /localscratch/bjb2chen.18562723.0/FeCOcat_SPK_gmcpt_C1_5st_diab_0.05_+x1q29.F92.016
-rw-r----- 1 bjb2chen bjb2chen        0 Apr  9 02:22 /localscratch/bjb2chen.18562723.0/FeCOcat_SPK_gmcpt_C1_5st_diab_0.05_+x1q29.F92.017
-rw-r----- 1 bjb2chen bjb2chen        0 Apr  9 02:22 /localscratch/bjb2chen.18562723.0/FeCOcat_SPK_gmcpt_C1_5st_diab_0.05_+x1q29.F92.018
-rw-r----- 1 bjb2chen bjb2chen        0 Apr  9 02:22 /localscratch/bjb2chen.18562723.0/FeCOcat_SPK_gmcpt_C1_5st_diab_0.05_+x1q29.F92.019
-rw-r----- 1 bjb2chen bjb2chen        0 Apr  9 02:22 /localscratch/bjb2chen.18562723.0/FeCOcat_SPK_gmcpt_C1_5st_diab_0.05_+x1q29.F93
-rw-r----- 1 bjb2chen bjb2chen        0 Apr  9 02:22 /localscratch/bjb2chen.18562723.0/FeCOcat_SPK_gmcpt_C1_5st_diab_0.05_+x1q29.F93.001
-rw-r----- 1 bjb2chen bjb2chen        0 Apr  9 02:22 /localscratch/bjb2chen.18562723.0/FeCOcat_SPK_gmcpt_C1_5st_diab_0.05_+x1q29.F93.002
-rw-r----- 1 bjb2chen bjb2chen        0 Apr  9 02:22 /localscratch/bjb2chen.18562723.0/FeCOcat_SPK_gmcpt_C1_5st_diab_0.05_+x1q29.F93.003
-rw-r----- 1 bjb2chen bjb2chen        0 Apr  9 02:22 /localscratch/bjb2chen.18562723.0/FeCOcat_SPK_gmcpt_C1_5st_diab_0.05_+x1q29.F93.004
-rw-r----- 1 bjb2chen bjb2chen        0 Apr  9 02:22 /localscratch/bjb2chen.18562723.0/FeCOcat_SPK_gmcpt_C1_5st_diab_0.05_+x1q29.F93.005
-rw-r----- 1 bjb2chen bjb2chen        0 Apr  9 02:22 /localscratch/bjb2chen.18562723.0/FeCOcat_SPK_gmcpt_C1_5st_diab_0.05_+x1q29.F93.006
-rw-r----- 1 bjb2chen bjb2chen        0 Apr  9 02:22 /localscratch/bjb2chen.18562723.0/FeCOcat_SPK_gmcpt_C1_5st_diab_0.05_+x1q29.F93.007
-rw-r----- 1 bjb2chen bjb2chen        0 Apr  9 02:22 /localscratch/bjb2chen.18562723.0/FeCOcat_SPK_gmcpt_C1_5st_diab_0.05_+x1q29.F93.008
-rw-r----- 1 bjb2chen bjb2chen        0 Apr  9 02:22 /localscratch/bjb2chen.18562723.0/FeCOcat_SPK_gmcpt_C1_5st_diab_0.05_+x1q29.F93.009
-rw-r----- 1 bjb2chen bjb2chen        0 Apr  9 02:22 /localscratch/bjb2chen.18562723.0/FeCOcat_SPK_gmcpt_C1_5st_diab_0.05_+x1q29.F93.010
-rw-r----- 1 bjb2chen bjb2chen        0 Apr  9 02:22 /localscratch/bjb2chen.18562723.0/FeCOcat_SPK_gmcpt_C1_5st_diab_0.05_+x1q29.F93.011
-rw-r----- 1 bjb2chen bjb2chen        0 Apr  9 02:22 /localscratch/bjb2chen.18562723.0/FeCOcat_SPK_gmcpt_C1_5st_diab_0.05_+x1q29.F93.012
-rw-r----- 1 bjb2chen bjb2chen        0 Apr  9 02:22 /localscratch/bjb2chen.18562723.0/FeCOcat_SPK_gmcpt_C1_5st_diab_0.05_+x1q29.F93.013
-rw-r----- 1 bjb2chen bjb2chen        0 Apr  9 02:22 /localscratch/bjb2chen.18562723.0/FeCOcat_SPK_gmcpt_C1_5st_diab_0.05_+x1q29.F93.014
-rw-r----- 1 bjb2chen bjb2chen        0 Apr  9 02:22 /localscratch/bjb2chen.18562723.0/FeCOcat_SPK_gmcpt_C1_5st_diab_0.05_+x1q29.F93.015
-rw-r----- 1 bjb2chen bjb2chen        0 Apr  9 02:22 /localscratch/bjb2chen.18562723.0/FeCOcat_SPK_gmcpt_C1_5st_diab_0.05_+x1q29.F93.016
-rw-r----- 1 bjb2chen bjb2chen        0 Apr  9 02:22 /localscratch/bjb2chen.18562723.0/FeCOcat_SPK_gmcpt_C1_5st_diab_0.05_+x1q29.F93.017
-rw-r----- 1 bjb2chen bjb2chen        0 Apr  9 02:22 /localscratch/bjb2chen.18562723.0/FeCOcat_SPK_gmcpt_C1_5st_diab_0.05_+x1q29.F93.018
-rw-r----- 1 bjb2chen bjb2chen        0 Apr  9 02:22 /localscratch/bjb2chen.18562723.0/FeCOcat_SPK_gmcpt_C1_5st_diab_0.05_+x1q29.F93.019
-rw-r----- 1 bjb2chen bjb2chen        0 Apr  9 02:22 /localscratch/bjb2chen.18562723.0/FeCOcat_SPK_gmcpt_C1_5st_diab_0.05_+x1q29.F94
-rw-r----- 1 bjb2chen bjb2chen        0 Apr  9 02:22 /localscratch/bjb2chen.18562723.0/FeCOcat_SPK_gmcpt_C1_5st_diab_0.05_+x1q29.F94.001
-rw-r----- 1 bjb2chen bjb2chen        0 Apr  9 02:22 /localscratch/bjb2chen.18562723.0/FeCOcat_SPK_gmcpt_C1_5st_diab_0.05_+x1q29.F94.002
-rw-r----- 1 bjb2chen bjb2chen        0 Apr  9 02:22 /localscratch/bjb2chen.18562723.0/FeCOcat_SPK_gmcpt_C1_5st_diab_0.05_+x1q29.F94.003
-rw-r----- 1 bjb2chen bjb2chen        0 Apr  9 02:22 /localscratch/bjb2chen.18562723.0/FeCOcat_SPK_gmcpt_C1_5st_diab_0.05_+x1q29.F94.004
-rw-r----- 1 bjb2chen bjb2chen        0 Apr  9 02:22 /localscratch/bjb2chen.18562723.0/FeCOcat_SPK_gmcpt_C1_5st_diab_0.05_+x1q29.F94.005
-rw-r----- 1 bjb2chen bjb2chen        0 Apr  9 02:22 /localscratch/bjb2chen.18562723.0/FeCOcat_SPK_gmcpt_C1_5st_diab_0.05_+x1q29.F94.006
-rw-r----- 1 bjb2chen bjb2chen        0 Apr  9 02:22 /localscratch/bjb2chen.18562723.0/FeCOcat_SPK_gmcpt_C1_5st_diab_0.05_+x1q29.F94.007
-rw-r----- 1 bjb2chen bjb2chen        0 Apr  9 02:22 /localscratch/bjb2chen.18562723.0/FeCOcat_SPK_gmcpt_C1_5st_diab_0.05_+x1q29.F94.008
-rw-r----- 1 bjb2chen bjb2chen        0 Apr  9 02:22 /localscratch/bjb2chen.18562723.0/FeCOcat_SPK_gmcpt_C1_5st_diab_0.05_+x1q29.F94.009
-rw-r----- 1 bjb2chen bjb2chen        0 Apr  9 02:22 /localscratch/bjb2chen.18562723.0/FeCOcat_SPK_gmcpt_C1_5st_diab_0.05_+x1q29.F94.010
-rw-r----- 1 bjb2chen bjb2chen        0 Apr  9 02:22 /localscratch/bjb2chen.18562723.0/FeCOcat_SPK_gmcpt_C1_5st_diab_0.05_+x1q29.F94.011
-rw-r----- 1 bjb2chen bjb2chen        0 Apr  9 02:22 /localscratch/bjb2chen.18562723.0/FeCOcat_SPK_gmcpt_C1_5st_diab_0.05_+x1q29.F94.012
-rw-r----- 1 bjb2chen bjb2chen        0 Apr  9 02:22 /localscratch/bjb2chen.18562723.0/FeCOcat_SPK_gmcpt_C1_5st_diab_0.05_+x1q29.F94.013
-rw-r----- 1 bjb2chen bjb2chen        0 Apr  9 02:22 /localscratch/bjb2chen.18562723.0/FeCOcat_SPK_gmcpt_C1_5st_diab_0.05_+x1q29.F94.014
-rw-r----- 1 bjb2chen bjb2chen        0 Apr  9 02:22 /localscratch/bjb2chen.18562723.0/FeCOcat_SPK_gmcpt_C1_5st_diab_0.05_+x1q29.F94.015
-rw-r----- 1 bjb2chen bjb2chen        0 Apr  9 02:22 /localscratch/bjb2chen.18562723.0/FeCOcat_SPK_gmcpt_C1_5st_diab_0.05_+x1q29.F94.016
-rw-r----- 1 bjb2chen bjb2chen        0 Apr  9 02:22 /localscratch/bjb2chen.18562723.0/FeCOcat_SPK_gmcpt_C1_5st_diab_0.05_+x1q29.F94.017
-rw-r----- 1 bjb2chen bjb2chen        0 Apr  9 02:22 /localscratch/bjb2chen.18562723.0/FeCOcat_SPK_gmcpt_C1_5st_diab_0.05_+x1q29.F94.018
-rw-r----- 1 bjb2chen bjb2chen        0 Apr  9 02:22 /localscratch/bjb2chen.18562723.0/FeCOcat_SPK_gmcpt_C1_5st_diab_0.05_+x1q29.F94.019
-rw-r----- 1 bjb2chen bjb2chen        0 Apr  9 02:22 /localscratch/bjb2chen.18562723.0/FeCOcat_SPK_gmcpt_C1_5st_diab_0.05_+x1q29.F95
-rw-r----- 1 bjb2chen bjb2chen        0 Apr  9 02:22 /localscratch/bjb2chen.18562723.0/FeCOcat_SPK_gmcpt_C1_5st_diab_0.05_+x1q29.F95.001
-rw-r----- 1 bjb2chen bjb2chen        0 Apr  9 02:22 /localscratch/bjb2chen.18562723.0/FeCOcat_SPK_gmcpt_C1_5st_diab_0.05_+x1q29.F95.002
-rw-r----- 1 bjb2chen bjb2chen        0 Apr  9 02:22 /localscratch/bjb2chen.18562723.0/FeCOcat_SPK_gmcpt_C1_5st_diab_0.05_+x1q29.F95.003
-rw-r----- 1 bjb2chen bjb2chen        0 Apr  9 02:22 /localscratch/bjb2chen.18562723.0/FeCOcat_SPK_gmcpt_C1_5st_diab_0.05_+x1q29.F95.004
-rw-r----- 1 bjb2chen bjb2chen        0 Apr  9 02:22 /localscratch/bjb2chen.18562723.0/FeCOcat_SPK_gmcpt_C1_5st_diab_0.05_+x1q29.F95.005
-rw-r----- 1 bjb2chen bjb2chen        0 Apr  9 02:22 /localscratch/bjb2chen.18562723.0/FeCOcat_SPK_gmcpt_C1_5st_diab_0.05_+x1q29.F95.006
-rw-r----- 1 bjb2chen bjb2chen        0 Apr  9 02:22 /localscratch/bjb2chen.18562723.0/FeCOcat_SPK_gmcpt_C1_5st_diab_0.05_+x1q29.F95.007
-rw-r----- 1 bjb2chen bjb2chen        0 Apr  9 02:22 /localscratch/bjb2chen.18562723.0/FeCOcat_SPK_gmcpt_C1_5st_diab_0.05_+x1q29.F95.008
-rw-r----- 1 bjb2chen bjb2chen        0 Apr  9 02:22 /localscratch/bjb2chen.18562723.0/FeCOcat_SPK_gmcpt_C1_5st_diab_0.05_+x1q29.F95.009
-rw-r----- 1 bjb2chen bjb2chen        0 Apr  9 02:22 /localscratch/bjb2chen.18562723.0/FeCOcat_SPK_gmcpt_C1_5st_diab_0.05_+x1q29.F95.010
-rw-r----- 1 bjb2chen bjb2chen        0 Apr  9 02:22 /localscratch/bjb2chen.18562723.0/FeCOcat_SPK_gmcpt_C1_5st_diab_0.05_+x1q29.F95.011
-rw-r----- 1 bjb2chen bjb2chen        0 Apr  9 02:22 /localscratch/bjb2chen.18562723.0/FeCOcat_SPK_gmcpt_C1_5st_diab_0.05_+x1q29.F95.012
-rw-r----- 1 bjb2chen bjb2chen        0 Apr  9 02:22 /localscratch/bjb2chen.18562723.0/FeCOcat_SPK_gmcpt_C1_5st_diab_0.05_+x1q29.F95.013
-rw-r----- 1 bjb2chen bjb2chen        0 Apr  9 02:22 /localscratch/bjb2chen.18562723.0/FeCOcat_SPK_gmcpt_C1_5st_diab_0.05_+x1q29.F95.014
-rw-r----- 1 bjb2chen bjb2chen        0 Apr  9 02:22 /localscratch/bjb2chen.18562723.0/FeCOcat_SPK_gmcpt_C1_5st_diab_0.05_+x1q29.F95.015
-rw-r----- 1 bjb2chen bjb2chen        0 Apr  9 02:22 /localscratch/bjb2chen.18562723.0/FeCOcat_SPK_gmcpt_C1_5st_diab_0.05_+x1q29.F95.016
-rw-r----- 1 bjb2chen bjb2chen        0 Apr  9 02:22 /localscratch/bjb2chen.18562723.0/FeCOcat_SPK_gmcpt_C1_5st_diab_0.05_+x1q29.F95.017
-rw-r----- 1 bjb2chen bjb2chen        0 Apr  9 02:22 /localscratch/bjb2chen.18562723.0/FeCOcat_SPK_gmcpt_C1_5st_diab_0.05_+x1q29.F95.018
-rw-r----- 1 bjb2chen bjb2chen        0 Apr  9 02:22 /localscratch/bjb2chen.18562723.0/FeCOcat_SPK_gmcpt_C1_5st_diab_0.05_+x1q29.F95.019
-rw-r----- 1 bjb2chen bjb2chen        0 Apr  9 02:22 /localscratch/bjb2chen.18562723.0/FeCOcat_SPK_gmcpt_C1_5st_diab_0.05_+x1q29.F96
-rw-r----- 1 bjb2chen bjb2chen        0 Apr  9 02:22 /localscratch/bjb2chen.18562723.0/FeCOcat_SPK_gmcpt_C1_5st_diab_0.05_+x1q29.F96.001
-rw-r----- 1 bjb2chen bjb2chen        0 Apr  9 02:22 /localscratch/bjb2chen.18562723.0/FeCOcat_SPK_gmcpt_C1_5st_diab_0.05_+x1q29.F96.002
-rw-r----- 1 bjb2chen bjb2chen        0 Apr  9 02:22 /localscratch/bjb2chen.18562723.0/FeCOcat_SPK_gmcpt_C1_5st_diab_0.05_+x1q29.F96.003
-rw-r----- 1 bjb2chen bjb2chen        0 Apr  9 02:22 /localscratch/bjb2chen.18562723.0/FeCOcat_SPK_gmcpt_C1_5st_diab_0.05_+x1q29.F96.004
-rw-r----- 1 bjb2chen bjb2chen        0 Apr  9 02:22 /localscratch/bjb2chen.18562723.0/FeCOcat_SPK_gmcpt_C1_5st_diab_0.05_+x1q29.F96.005
-rw-r----- 1 bjb2chen bjb2chen        0 Apr  9 02:22 /localscratch/bjb2chen.18562723.0/FeCOcat_SPK_gmcpt_C1_5st_diab_0.05_+x1q29.F96.006
-rw-r----- 1 bjb2chen bjb2chen        0 Apr  9 02:22 /localscratch/bjb2chen.18562723.0/FeCOcat_SPK_gmcpt_C1_5st_diab_0.05_+x1q29.F96.007
-rw-r----- 1 bjb2chen bjb2chen        0 Apr  9 02:22 /localscratch/bjb2chen.18562723.0/FeCOcat_SPK_gmcpt_C1_5st_diab_0.05_+x1q29.F96.008
-rw-r----- 1 bjb2chen bjb2chen        0 Apr  9 02:22 /localscratch/bjb2chen.18562723.0/FeCOcat_SPK_gmcpt_C1_5st_diab_0.05_+x1q29.F96.009
-rw-r----- 1 bjb2chen bjb2chen        0 Apr  9 02:22 /localscratch/bjb2chen.18562723.0/FeCOcat_SPK_gmcpt_C1_5st_diab_0.05_+x1q29.F96.010
-rw-r----- 1 bjb2chen bjb2chen        0 Apr  9 02:22 /localscratch/bjb2chen.18562723.0/FeCOcat_SPK_gmcpt_C1_5st_diab_0.05_+x1q29.F96.011
-rw-r----- 1 bjb2chen bjb2chen        0 Apr  9 02:22 /localscratch/bjb2chen.18562723.0/FeCOcat_SPK_gmcpt_C1_5st_diab_0.05_+x1q29.F96.012
-rw-r----- 1 bjb2chen bjb2chen        0 Apr  9 02:22 /localscratch/bjb2chen.18562723.0/FeCOcat_SPK_gmcpt_C1_5st_diab_0.05_+x1q29.F96.013
-rw-r----- 1 bjb2chen bjb2chen        0 Apr  9 02:22 /localscratch/bjb2chen.18562723.0/FeCOcat_SPK_gmcpt_C1_5st_diab_0.05_+x1q29.F96.014
-rw-r----- 1 bjb2chen bjb2chen        0 Apr  9 02:22 /localscratch/bjb2chen.18562723.0/FeCOcat_SPK_gmcpt_C1_5st_diab_0.05_+x1q29.F96.015
-rw-r----- 1 bjb2chen bjb2chen        0 Apr  9 02:22 /localscratch/bjb2chen.18562723.0/FeCOcat_SPK_gmcpt_C1_5st_diab_0.05_+x1q29.F96.016
-rw-r----- 1 bjb2chen bjb2chen        0 Apr  9 02:22 /localscratch/bjb2chen.18562723.0/FeCOcat_SPK_gmcpt_C1_5st_diab_0.05_+x1q29.F96.017
-rw-r----- 1 bjb2chen bjb2chen        0 Apr  9 02:22 /localscratch/bjb2chen.18562723.0/FeCOcat_SPK_gmcpt_C1_5st_diab_0.05_+x1q29.F96.018
-rw-r----- 1 bjb2chen bjb2chen        0 Apr  9 02:22 /localscratch/bjb2chen.18562723.0/FeCOcat_SPK_gmcpt_C1_5st_diab_0.05_+x1q29.F96.019
-rw-r----- 1 bjb2chen bjb2chen        0 Apr  9 02:22 /localscratch/bjb2chen.18562723.0/FeCOcat_SPK_gmcpt_C1_5st_diab_0.05_+x1q29.F97
-rw-r----- 1 bjb2chen bjb2chen        0 Apr  9 02:22 /localscratch/bjb2chen.18562723.0/FeCOcat_SPK_gmcpt_C1_5st_diab_0.05_+x1q29.F97.001
-rw-r----- 1 bjb2chen bjb2chen        0 Apr  9 02:22 /localscratch/bjb2chen.18562723.0/FeCOcat_SPK_gmcpt_C1_5st_diab_0.05_+x1q29.F97.002
-rw-r----- 1 bjb2chen bjb2chen        0 Apr  9 02:22 /localscratch/bjb2chen.18562723.0/FeCOcat_SPK_gmcpt_C1_5st_diab_0.05_+x1q29.F97.003
-rw-r----- 1 bjb2chen bjb2chen        0 Apr  9 02:22 /localscratch/bjb2chen.18562723.0/FeCOcat_SPK_gmcpt_C1_5st_diab_0.05_+x1q29.F97.004
-rw-r----- 1 bjb2chen bjb2chen        0 Apr  9 02:22 /localscratch/bjb2chen.18562723.0/FeCOcat_SPK_gmcpt_C1_5st_diab_0.05_+x1q29.F97.005
-rw-r----- 1 bjb2chen bjb2chen        0 Apr  9 02:22 /localscratch/bjb2chen.18562723.0/FeCOcat_SPK_gmcpt_C1_5st_diab_0.05_+x1q29.F97.006
-rw-r----- 1 bjb2chen bjb2chen        0 Apr  9 02:22 /localscratch/bjb2chen.18562723.0/FeCOcat_SPK_gmcpt_C1_5st_diab_0.05_+x1q29.F97.007
-rw-r----- 1 bjb2chen bjb2chen        0 Apr  9 02:22 /localscratch/bjb2chen.18562723.0/FeCOcat_SPK_gmcpt_C1_5st_diab_0.05_+x1q29.F97.008
-rw-r----- 1 bjb2chen bjb2chen        0 Apr  9 02:22 /localscratch/bjb2chen.18562723.0/FeCOcat_SPK_gmcpt_C1_5st_diab_0.05_+x1q29.F97.009
-rw-r----- 1 bjb2chen bjb2chen        0 Apr  9 02:22 /localscratch/bjb2chen.18562723.0/FeCOcat_SPK_gmcpt_C1_5st_diab_0.05_+x1q29.F97.010
-rw-r----- 1 bjb2chen bjb2chen        0 Apr  9 02:22 /localscratch/bjb2chen.18562723.0/FeCOcat_SPK_gmcpt_C1_5st_diab_0.05_+x1q29.F97.011
-rw-r----- 1 bjb2chen bjb2chen        0 Apr  9 02:22 /localscratch/bjb2chen.18562723.0/FeCOcat_SPK_gmcpt_C1_5st_diab_0.05_+x1q29.F97.012
-rw-r----- 1 bjb2chen bjb2chen        0 Apr  9 02:22 /localscratch/bjb2chen.18562723.0/FeCOcat_SPK_gmcpt_C1_5st_diab_0.05_+x1q29.F97.013
-rw-r----- 1 bjb2chen bjb2chen        0 Apr  9 02:22 /localscratch/bjb2chen.18562723.0/FeCOcat_SPK_gmcpt_C1_5st_diab_0.05_+x1q29.F97.014
-rw-r----- 1 bjb2chen bjb2chen        0 Apr  9 02:22 /localscratch/bjb2chen.18562723.0/FeCOcat_SPK_gmcpt_C1_5st_diab_0.05_+x1q29.F97.015
-rw-r----- 1 bjb2chen bjb2chen        0 Apr  9 02:22 /localscratch/bjb2chen.18562723.0/FeCOcat_SPK_gmcpt_C1_5st_diab_0.05_+x1q29.F97.016
-rw-r----- 1 bjb2chen bjb2chen        0 Apr  9 02:22 /localscratch/bjb2chen.18562723.0/FeCOcat_SPK_gmcpt_C1_5st_diab_0.05_+x1q29.F97.017
-rw-r----- 1 bjb2chen bjb2chen        0 Apr  9 02:22 /localscratch/bjb2chen.18562723.0/FeCOcat_SPK_gmcpt_C1_5st_diab_0.05_+x1q29.F97.018
-rw-r----- 1 bjb2chen bjb2chen        0 Apr  9 02:22 /localscratch/bjb2chen.18562723.0/FeCOcat_SPK_gmcpt_C1_5st_diab_0.05_+x1q29.F97.019
-rw-r----- 1 bjb2chen bjb2chen    31368 Apr  9 02:22 /localscratch/bjb2chen.18562723.0/FeCOcat_SPK_gmcpt_C1_5st_diab_0.05_+x1q29.F98
-rw-r----- 1 bjb2chen bjb2chen    31368 Apr  9 02:22 /localscratch/bjb2chen.18562723.0/FeCOcat_SPK_gmcpt_C1_5st_diab_0.05_+x1q29.F98.001
-rw-r----- 1 bjb2chen bjb2chen    31368 Apr  9 02:22 /localscratch/bjb2chen.18562723.0/FeCOcat_SPK_gmcpt_C1_5st_diab_0.05_+x1q29.F98.002
-rw-r----- 1 bjb2chen bjb2chen    31368 Apr  9 02:22 /localscratch/bjb2chen.18562723.0/FeCOcat_SPK_gmcpt_C1_5st_diab_0.05_+x1q29.F98.003
-rw-r----- 1 bjb2chen bjb2chen    31368 Apr  9 02:22 /localscratch/bjb2chen.18562723.0/FeCOcat_SPK_gmcpt_C1_5st_diab_0.05_+x1q29.F98.004
-rw-r----- 1 bjb2chen bjb2chen    31368 Apr  9 02:22 /localscratch/bjb2chen.18562723.0/FeCOcat_SPK_gmcpt_C1_5st_diab_0.05_+x1q29.F98.005
-rw-r----- 1 bjb2chen bjb2chen    31368 Apr  9 02:22 /localscratch/bjb2chen.18562723.0/FeCOcat_SPK_gmcpt_C1_5st_diab_0.05_+x1q29.F98.006
-rw-r----- 1 bjb2chen bjb2chen    31368 Apr  9 02:22 /localscratch/bjb2chen.18562723.0/FeCOcat_SPK_gmcpt_C1_5st_diab_0.05_+x1q29.F98.007
-rw-r----- 1 bjb2chen bjb2chen    31368 Apr  9 02:22 /localscratch/bjb2chen.18562723.0/FeCOcat_SPK_gmcpt_C1_5st_diab_0.05_+x1q29.F98.008
-rw-r----- 1 bjb2chen bjb2chen    31368 Apr  9 02:22 /localscratch/bjb2chen.18562723.0/FeCOcat_SPK_gmcpt_C1_5st_diab_0.05_+x1q29.F98.009
-rw-r----- 1 bjb2chen bjb2chen    31368 Apr  9 02:22 /localscratch/bjb2chen.18562723.0/FeCOcat_SPK_gmcpt_C1_5st_diab_0.05_+x1q29.F98.010
-rw-r----- 1 bjb2chen bjb2chen    31368 Apr  9 02:22 /localscratch/bjb2chen.18562723.0/FeCOcat_SPK_gmcpt_C1_5st_diab_0.05_+x1q29.F98.011
-rw-r----- 1 bjb2chen bjb2chen    31368 Apr  9 02:22 /localscratch/bjb2chen.18562723.0/FeCOcat_SPK_gmcpt_C1_5st_diab_0.05_+x1q29.F98.012
-rw-r----- 1 bjb2chen bjb2chen    31368 Apr  9 02:22 /localscratch/bjb2chen.18562723.0/FeCOcat_SPK_gmcpt_C1_5st_diab_0.05_+x1q29.F98.013
-rw-r----- 1 bjb2chen bjb2chen    31368 Apr  9 02:22 /localscratch/bjb2chen.18562723.0/FeCOcat_SPK_gmcpt_C1_5st_diab_0.05_+x1q29.F98.014
-rw-r----- 1 bjb2chen bjb2chen    31368 Apr  9 02:22 /localscratch/bjb2chen.18562723.0/FeCOcat_SPK_gmcpt_C1_5st_diab_0.05_+x1q29.F98.015
-rw-r----- 1 bjb2chen bjb2chen    31368 Apr  9 02:22 /localscratch/bjb2chen.18562723.0/FeCOcat_SPK_gmcpt_C1_5st_diab_0.05_+x1q29.F98.016
-rw-r----- 1 bjb2chen bjb2chen    31368 Apr  9 02:22 /localscratch/bjb2chen.18562723.0/FeCOcat_SPK_gmcpt_C1_5st_diab_0.05_+x1q29.F98.017
-rw-r----- 1 bjb2chen bjb2chen    31368 Apr  9 02:22 /localscratch/bjb2chen.18562723.0/FeCOcat_SPK_gmcpt_C1_5st_diab_0.05_+x1q29.F98.018
-rw-r----- 1 bjb2chen bjb2chen    31368 Apr  9 02:22 /localscratch/bjb2chen.18562723.0/FeCOcat_SPK_gmcpt_C1_5st_diab_0.05_+x1q29.F98.019
-rw-r----- 1 bjb2chen bjb2chen   109784 Apr  9 02:22 /localscratch/bjb2chen.18562723.0/FeCOcat_SPK_gmcpt_C1_5st_diab_0.05_+x1q29.F99
-rw-r----- 1 bjb2chen bjb2chen   109784 Apr  9 02:22 /localscratch/bjb2chen.18562723.0/FeCOcat_SPK_gmcpt_C1_5st_diab_0.05_+x1q29.F99.001
-rw-r----- 1 bjb2chen bjb2chen   109784 Apr  9 02:22 /localscratch/bjb2chen.18562723.0/FeCOcat_SPK_gmcpt_C1_5st_diab_0.05_+x1q29.F99.002
-rw-r----- 1 bjb2chen bjb2chen   109784 Apr  9 02:22 /localscratch/bjb2chen.18562723.0/FeCOcat_SPK_gmcpt_C1_5st_diab_0.05_+x1q29.F99.003
-rw-r----- 1 bjb2chen bjb2chen   109784 Apr  9 02:22 /localscratch/bjb2chen.18562723.0/FeCOcat_SPK_gmcpt_C1_5st_diab_0.05_+x1q29.F99.004
-rw-r----- 1 bjb2chen bjb2chen   109784 Apr  9 02:22 /localscratch/bjb2chen.18562723.0/FeCOcat_SPK_gmcpt_C1_5st_diab_0.05_+x1q29.F99.005
-rw-r----- 1 bjb2chen bjb2chen   109784 Apr  9 02:22 /localscratch/bjb2chen.18562723.0/FeCOcat_SPK_gmcpt_C1_5st_diab_0.05_+x1q29.F99.006
-rw-r----- 1 bjb2chen bjb2chen   109784 Apr  9 02:22 /localscratch/bjb2chen.18562723.0/FeCOcat_SPK_gmcpt_C1_5st_diab_0.05_+x1q29.F99.007
-rw-r----- 1 bjb2chen bjb2chen   109784 Apr  9 02:22 /localscratch/bjb2chen.18562723.0/FeCOcat_SPK_gmcpt_C1_5st_diab_0.05_+x1q29.F99.008
-rw-r----- 1 bjb2chen bjb2chen   109784 Apr  9 02:22 /localscratch/bjb2chen.18562723.0/FeCOcat_SPK_gmcpt_C1_5st_diab_0.05_+x1q29.F99.009
-rw-r----- 1 bjb2chen bjb2chen   109784 Apr  9 02:22 /localscratch/bjb2chen.18562723.0/FeCOcat_SPK_gmcpt_C1_5st_diab_0.05_+x1q29.F99.010
-rw-r----- 1 bjb2chen bjb2chen   109784 Apr  9 02:22 /localscratch/bjb2chen.18562723.0/FeCOcat_SPK_gmcpt_C1_5st_diab_0.05_+x1q29.F99.011
-rw-r----- 1 bjb2chen bjb2chen   109784 Apr  9 02:22 /localscratch/bjb2chen.18562723.0/FeCOcat_SPK_gmcpt_C1_5st_diab_0.05_+x1q29.F99.012
-rw-r----- 1 bjb2chen bjb2chen   109784 Apr  9 02:22 /localscratch/bjb2chen.18562723.0/FeCOcat_SPK_gmcpt_C1_5st_diab_0.05_+x1q29.F99.013
-rw-r----- 1 bjb2chen bjb2chen   109784 Apr  9 02:22 /localscratch/bjb2chen.18562723.0/FeCOcat_SPK_gmcpt_C1_5st_diab_0.05_+x1q29.F99.014
-rw-r----- 1 bjb2chen bjb2chen   109784 Apr  9 02:22 /localscratch/bjb2chen.18562723.0/FeCOcat_SPK_gmcpt_C1_5st_diab_0.05_+x1q29.F99.015
-rw-r----- 1 bjb2chen bjb2chen   109784 Apr  9 02:22 /localscratch/bjb2chen.18562723.0/FeCOcat_SPK_gmcpt_C1_5st_diab_0.05_+x1q29.F99.016
-rw-r----- 1 bjb2chen bjb2chen   109784 Apr  9 02:22 /localscratch/bjb2chen.18562723.0/FeCOcat_SPK_gmcpt_C1_5st_diab_0.05_+x1q29.F99.017
-rw-r----- 1 bjb2chen bjb2chen   109784 Apr  9 02:22 /localscratch/bjb2chen.18562723.0/FeCOcat_SPK_gmcpt_C1_5st_diab_0.05_+x1q29.F99.018
-rw-r----- 1 bjb2chen bjb2chen   109784 Apr  9 02:22 /localscratch/bjb2chen.18562723.0/FeCOcat_SPK_gmcpt_C1_5st_diab_0.05_+x1q29.F99.019
ls: No match.
ls: No match.
ls: No match.
Wed Apr 10 12:03:54 AM EDT 2024
1.076u 0.287s 21:41:16.61 0.0%	0+0k 16352+5392io 36pf+0w
