----- GAMESS execution script 'rungms' -----
This job is running on host io003
under operating system Linux at Sun 17 Mar 2024 05:16:45 PM EDT
Available scratch disk space (Kbyte units) at beginning of the job is
Filesystem             1K-blocks       Used Available Use% Mounted on
helmholtz.nlogn:/home 6391504896 5308626944 760738816  88% /home
GAMESS temporary binary files will be written to /home/bjb2chen/gmsscr/
GAMESS supplementary output files will be written to /home/bjb2chen/gamess/vibronics/template_examples/Fe_pentaCO/5st_nonSOC_mstart6_neutral
Copying input file FeCO_SPK_gmcpt_C1_5st_diab_0.3_+x1q27.inp to your run's scratch directory...
cp FeCO_SPK_gmcpt_C1_5st_diab_0.3_+x1q27.inp /home/bjb2chen/gmsscr//FeCO_SPK_gmcpt_C1_5st_diab_0.3_+x1q27.F05
unset echo
 
Assuming a single but multicore node.
 
/home/bjb2chen/gamess/ddikick.x /home/bjb2chen/gamess/gamess.00.x FeCO_SPK_gmcpt_C1_5st_diab_0.3_+x1q27 -ddi 1 3 io003:cpus=3 -scr /home/bjb2chen/gmsscr/

 Distributed Data Interface kickoff program.
 Initiating 3 compute processes on 1 nodes to run the following command:
 /home/bjb2chen/gamess/gamess.00.x FeCO_SPK_gmcpt_C1_5st_diab_0.3_+x1q27 

          ******************************************************
          *         GAMESS VERSION = 02 AUG 2018 (R2)         *
          *             FROM IOWA STATE UNIVERSITY             *
          * M.W.SCHMIDT, K.K.BALDRIDGE, J.A.BOATZ, S.T.ELBERT, *
          *   M.S.GORDON, J.H.JENSEN, S.KOSEKI, N.MATSUNAGA,   *
          *          K.A.NGUYEN, S.J.SU, T.L.WINDUS,           *
          *       TOGETHER WITH M.DUPUIS, J.A.MONTGOMERY       *
          *         J.COMPUT.CHEM.  14, 1347-1363(1993)        *
          **************** 64 BIT LINUX VERSION ****************

  SINCE 1993, STUDENTS AND POSTDOCS WORKING AT IOWA STATE UNIVERSITY
  AND ALSO IN THEIR VARIOUS JOBS AFTER LEAVING ISU HAVE MADE IMPORTANT
  CONTRIBUTIONS TO THE CODE:
     IVANA ADAMOVIC, CHRISTINE AIKENS, YURI ALEXEEV, POOJA ARORA,
     ANDREY ASADCHEV, ROB BELL, PRADIPTA BANDYOPADHYAY, JONATHAN BENTZ,
     BRETT BODE, KURT BRORSEN, CALEB CARLIN, GALINA CHABAN, WEI CHEN,
     CHEOL HO CHOI, PAUL DAY, ALBERT DEFUSCO, NUWAN DESILVA, TIM DUDLEY,
     DMITRI FEDOROV, ALEX FINDLATER, GRAHAM FLETCHER, MARK FREITAG,
     KURT GLAESEMANN, ANASTASIA GUININA,
     DAN KEMP, GRANT MERRILL, NORIYUKI MINEZAWA, JONATHAN MULLIN,
     TAKESHI NAGATA, SEAN NEDD, HEATHER NETZLOFF, BOSILJKA NJEGIC, RYAN OLSON,
     MIKE PAK, BUU PHAM,
     SPENCER PRUITT, LUKE ROSKOP, JIM SHOEMAKER, LYUDMILA SLIPCHENKO,
     TONY SMITH, SAROM SOK LEANG, JIE SONG, TETSUYA TAKETSUGU, SIMON WEBB,
     PENG XU, SOOHAENG YOO, FEDERICO ZAHARIEV

  ADDITIONAL CODE HAS BEEN PROVIDED BY COLLABORATORS IN OTHER GROUPS:
     IOWA STATE UNIVERSITY:
          JOE IVANIC, AARON WEST, LAIMUTIS BYTAUTAS, KLAUS RUEDENBERG
     UNIVERSITY OF TOKYO: KIMIHIKO HIRAO, TAKAHITO NAKAJIMA,
          TAKAO TSUNEDA, MUNEAKI KAMIYA, SUSUMU YANAGISAWA,
          KIYOSHI YAGI, MAHITO CHIBA, SEIKEN TOKURA, NAOAKI KAWAKAMI
     UNIVERSITY OF AARHUS: FRANK JENSEN
     UNIVERSITY OF IOWA: VISVALDAS KAIRYS, HUI LI
     NATIONAL INST. OF STANDARDS AND TECHNOLOGY: WALT STEVENS, DAVID GARMER
     UNIVERSITY OF PISA: BENEDETTA MENNUCCI, JACOPO TOMASI
     UNIVERSITY OF MEMPHIS: HENRY KURTZ, PRAKASHAN KORAMBATH
     UNIVERSITY OF ALBERTA: TOBY ZENG, MARIUSZ KLOBUKOWSKI
     UNIVERSITY OF NEW ENGLAND: MARK SPACKMAN
     MIE UNIVERSITY: HIROAKI UMEDA
     NAT. INST. OF ADVANCED INDUSTRIAL SCIENCE AND TECHNOLOGY: KAZUO KITAURA
     MICHIGAN STATE UNIVERSITY:
          KAROL KOWALSKI, MARTA WLOCH, JEFFREY GOUR, JESSE LUTZ,
          WEI LI, JUN SHEN, J. EMILIANO DEUSTUA, PIOTR PIECUCH
     UNIVERSITY OF MINNESOTA:
          YINAN SHU
     UNIVERSITY OF SILESIA: MONIKA MUSIAL, STANISLAW KUCHARSKI
     FACULTES UNIVERSITAIRES NOTRE-DAME DE LA PAIX:
          OLIVIER QUINET, BENOIT CHAMPAGNE
     UNIVERSITY OF CALIFORNIA - SANTA BARBARA: BERNARD KIRTMAN
     INSTITUTE FOR MOLECULAR SCIENCE:
          KAZUYA ISHIMURA, MICHIO KATOUDA, AND SHIGERU NAGASE
     UNIVERSITY OF NOTRE DAME: ANNA POMOGAEVA, DAN CHIPMAN
     KYUSHU UNIVERSITY:
          HARUYUKI NAKANO,
          FENG LONG GU, JACEK KORCHOWIEC, MARCIN MAKOWSKI, AND YURIKO AOKI,
          HIROTOSHI MORI AND EISAKU MIYOSHI
     PENNSYLVANIA STATE UNIVERSITY:
          TZVETELIN IORDANOV, CHET SWALINA, JONATHAN SKONE,
          SHARON HAMMES-SCHIFFER
     WASEDA UNIVERSITY:
          MASATO KOBAYASHI, TOMOKO AKAMA, TSUGUKI TOUMA,
          TAKESHI YOSHIKAWA, YASUHIRO IKABATA, JUNJI SEINO,
          YUYA NAKAJIMA, HIROMI NAKAI
     NANJING UNIVERSITY: SHUHUA LI
     UNIVERSITY OF NEBRASKA:
          PEIFENG SU, DEJUN SI, NANDUN THELLAMUREGE, YALI WANG, HUI LI
     UNIVERSITY OF ZURICH: ROBERTO PEVERATI, KIM BALDRIDGE
     N. COPERNICUS UNIVERSITY AND JACKSON STATE UNIVERSITY:
          MARIA BARYSZ
     UNIVERSITY OF COPENHAGEN: Jimmy Kromann, CASPER STEINMANN
     TOKYO INSTITUTE OF TECHNOLOGY: HIROYA NAKATA
     NAGOYA UNIVERSITY: YOSHIO NISHIMOTO, STEPHAN IRLE
     MOSCOW STATE UNIVERSITY: VLADIMIR MIRONOV


 PARALLEL VERSION RUNNING ON        3 PROCESSORS IN        1 NODES.

 EXECUTION OF GAMESS BEGUN Sun Mar 17 17:16:46 2024

            ECHO OF THE FIRST FEW INPUT CARDS -
 INPUT CARD> !############################################################################# 
 INPUT CARD> !                   D_3h RHF GEOMETRY OPTIMIZATION AND HESSIAN TEMPLATE        
 INPUT CARD> ! ---------------------------------------------------------------------------  
 INPUT CARD> ! Replace the symmetry-correct coordinates, should only be two atoms.          
 INPUT CARD> ! The hydrogen or fluorine should have only one non-zero x,y,z coordinate.     
 INPUT CARD> !                                                                              
 INPUT CARD> ! Basis set?   gbasis=ccd for 2nd row,                                         
 INPUT CARD> !                         cct 3rd/4th,                                         
 INPUT CARD> !                   SPKrTZP for heavy,                                         
 INPUT CARD> !                   SPKrTZC beyond 4th                                         
 INPUT CARD> !                                                                              
 INPUT CARD> !############################################################################# 
 INPUT CARD> $system kdiag=3 mwords=300 memddi=15000 parall=.t. $end                        
 INPUT CARD> $contrl runtyp=energy ispher=1 $end                                            
 INPUT CARD> $contrl icut=9 itol=20 inttyp=rysquad qmttol=1.0d-05 nosym=1 $end              
 INPUT CARD> $contrl scftyp=mcscf  mult=1 maxit=200 icharg=0 mplevl=2 $end                  
 INPUT CARD> $scf    npunch=2 conv=1.0d-06 dirscf=.t. $end                                  
 INPUT CARD> $force  method=seminum $end                                                    
 INPUT CARD> $trans  dirtrf=.t. $end                                                        
 INPUT CARD> $statpt hssend=.t. $end                                                        
 INPUT CARD> $basis  gbasis=SPKrTZP $end                                                    
 INPUT CARD> !############################################################################# 
 INPUT CARD> !                                                                              
 INPUT CARD> !                       TURN ON THIS SECTION IF HEAVY ATOM                     
 INPUT CARD> !                                                                              
 INPUT CARD> !############################################################################# 
 INPUT CARD> !                                                                              
 INPUT CARD> $contrl relwfn=LUT-IOTC $end                                                   
 INPUT CARD> $scf  diis=.t. soscf=.f. ethrsh=10.0 $end                                      
 INPUT CARD> -guess iorder(25)=27,25,26 $end                                                
 INPUT CARD> -gmcpt nsolut=100 $end                                                         
 INPUT CARD> !                                                                              
 INPUT CARD> !############################################################################# 
 INPUT CARD> !                                                                              
 INPUT CARD> ! TURN ON THIS SECTION IF GMCPT, CHANGE runtyp=energy, scftyp=mcscf, change nos
 INPUT CARD> !                                                                              
 INPUT CARD> !############################################################################# 
 INPUT CARD> $guess  guess=moread norb=369 purify=.t. norder=1 $end                         
 INPUT CARD> $mcscf  cistep=gmcci fullnr=.t. finci=mos                                      
 INPUT CARD>         acurcy=1.d-6 maxit=100 $end                                            
 INPUT CARD> $mrmp   mrpt=gmcpt rdvecs=.f. $end                                             
 INPUT CARD> $gmcpt  nmofzc=19 nmodoc=26 nmoact=3 nelact=4 stsym(1)=A                       
 INPUT CARD>         reftyp=ormas nspace=1 mstart(1)=46 mine(1)=4 maxe(1)=4                 
 INPUT CARD>         kstate(1)=1,1,1,1,1                                                    
 INPUT CARD>         wstate(1)=1,1,1,1,1                                                    
 INPUT CARD>         iwgt=0 thrwgt=-1.0 krot=.f. kszdoe=.f. knospn=.f.                      
 INPUT CARD>         thrde=-1.0 edshft=0.02 $end                                            
 INPUT CARD> !############################################################################# 
 INPUT CARD> !                                                                              
 INPUT CARD> !             TURN OFF THIS SECTION IF temp.inp, add C1                        
  300000000 WORDS OF MEMORY AVAILABLE

     $BASIS REQUESTS READING THE "SPKRTZP " BASIS SET FROM AN EXTERNAL FILE


     RUN TITLE
     ---------
  FeCO diabatization 5 states                                                    

 THE POINT GROUP OF THE MOLECULE IS C1      
 THE ORDER OF THE PRINCIPAL AXIS IS     0

 THE EXTERNAL BASIS SET FILE BEING READ IS
     "/home/bjb2chen/gamess/auxdata/BASES/SPKRTZP"

 ATOM      ATOMIC                      COORDINATES (BOHR)
           CHARGE         X                   Y                   Z
 FE         26.0    -0.0002434254        0.0000563481       -0.0016400942
 C           6.0    -1.8370607279        3.1819294809        0.0097919730
 C           6.0    -1.8375465119       -3.1827461789       -0.0085698604
 C           6.0     3.6751272523        0.0000123747       -0.0085726516
 O           8.0    -2.9151280827        5.0491575098       -0.0047021147
 O           8.0    -2.9174601236       -5.0532001174       -0.0024498421
 O           8.0     5.8348828232       -0.0000016944       -0.0024666428
 C           6.0     0.0164996138       -0.0000630580       -3.7867784809
 C           6.0     0.0041250739        0.0000597623        3.7770127323
 O           8.0    -0.0002815034       -0.0000096088       -5.9317667578
 O           8.0    -0.0001108760        0.0000106242        5.9301679759

          INTERNUCLEAR DISTANCES (ANGS.)
          ------------------------------

                1 FE         2 C          3 C          4 C          5 O     

   1 FE      0.0000000    1.9442022 *  1.9447507 *  1.9449260 *  3.0851526  
   2 C       1.9442022 *  0.0000000    3.3680556    3.3680438    1.1409852 *
   3 C       1.9447507 *  3.3680556    0.0000000    3.3684750    4.3933006  
   4 C       1.9449260 *  3.3680438    3.3684750    0.0000000    4.3932978  
   5 O       3.0851526    1.1409852 *  4.3933006    4.3932978    0.0000000  
   6 O       3.0876735    4.3951913    1.1429308 *  4.3955873    5.3459381  
   7 O       3.0878161    4.3951525    4.3955512    1.1428981 *  5.3459136  
   8 C       2.0030287 *  2.7988779 *  2.7922222 *  2.7831099 *  3.6812321  
   9 C       1.9995784 *  2.7854139 *  2.7927649 *  2.7904713 *  3.6783260  
  10 O       3.1380881    3.6966966    3.6886963    3.6888193    4.3995134  
  11 O       3.1389779    3.6871863    3.6957156    3.6957648    4.4024842  

                6 O          7 O          8 C          9 C         10 O     

   1 FE      3.0876735    3.0878161    2.0030287 *  1.9995784 *  3.1380881  
   2 C       4.3951913    4.3951525    2.7988779 *  2.7854139 *  3.6966966  
   3 C       1.1429308 *  4.3955512    2.7922222 *  2.7927649 *  3.6886963  
   4 C       4.3955873    1.1428981 *  2.7831099 *  2.7904713 *  3.6888193  
   5 O       5.3459381    5.3459136    3.6812321    3.6783260    4.3995134  
   6 O       0.0000000    5.3480508    3.6839045    3.6797965    4.4020889  
   7 O       5.3480508    0.0000000    3.6729094    3.6770090    4.4022250  
   8 C       3.6839045    3.6729094    0.0000000    4.0025916    1.1351137 *
   9 C       3.6797965    3.6770090    4.0025916    0.0000000    5.1376658  
  10 O       4.4020889    4.4022250    1.1351137 *  5.1376658    0.0000000  
  11 O       4.4033722    4.4034195    5.1419945    1.1394030 *  6.2770660  

               11 O     

   1 FE      3.1389779  
   2 C       3.6871863  
   3 C       3.6957156  
   4 C       3.6957648  
   5 O       4.4024842  
   6 O       4.4033722  
   7 O       4.4034195  
   8 C       5.1419945  
   9 C       1.1394030 *
  10 O       6.2770660  
  11 O       0.0000000  

  * ... LESS THAN  3.000


     ATOMIC BASIS SET
     ----------------
 THE CONTRACTED PRIMITIVE FUNCTIONS HAVE BEEN UNNORMALIZED
 THE CONTRACTED BASIS FUNCTIONS ARE NOW NORMALIZED TO UNITY

  SHELL TYPE  PRIMITIVE        EXPONENT          CONTRACTION COEFFICIENT(S)

 FE        

      1   S       1       1100791.5305010    0.000473999976
      1   S       2        111958.3587060    0.002184999889
      1   S       3         19185.3576710    0.008689999559
      1   S       4          4445.3037100    0.032685998341
      1   S       5          1266.9965100    0.110141994410
      1   S       6           416.6310290    0.284031985586
      1   S       7           150.8643160    0.454264876947
      1   S       8            56.3399190    0.263064986650

      2   S       9           359.6946140   -0.022463999939
      2   S      10           108.1698330   -0.110348999698
      2   S      11            16.2239570    0.581708898408
      2   S      12             6.5680420    0.504839898618

      3   S      13            10.7418790   -0.362092191734
      3   S      14             1.7503840    1.164823573408

      4   S      15             2.5115960    1.000000000000

      5   S      16             0.7053330    1.000000000000

      6   S      17             0.3621190    1.000000000000

      7   S      18             0.1098870    1.000000000000

      8   S      19             0.0389760    1.000000000000

      9   P      20          3763.5373930    0.001033999945
      9   P      21           777.6255800    0.008099999572
      9   P      22           235.1625800    0.042150997771
      9   P      23            85.2386240    0.150979992017
      9   P      24            34.2178420    0.344345981793
      9   P      25            14.4530580    0.445691976434
      9   P      26             6.0108430    0.197984989532

     10   P      27            29.2356570   -0.050671998602
     10   P      28             3.8658850    1.015612071978

     11   P      29             1.5321320    1.000000000000

     12   P      30             0.6880240    1.000000000000

     13   P      31             0.3377060    1.000000000000

     14   P      32             0.1058510    1.000000000000

     15   D      33           153.1499290    0.002483999928
     15   D      34            39.2185330    0.024814999278
     15   D      35            13.1241220    0.112497096729
     15   D      36             4.9420130    0.294331191441
     15   D      37             1.9182510    0.436439287309
     15   D      38             0.7263080    0.400155288364

     16   D      39             1.2013780    1.000000000000

     17   D      40             0.4134800    1.000000000000

     18   D      41             0.2769570    0.803321387841
     18   D      42             0.1024240    0.267279095955

     19   F      43             7.1173700    0.248360909500
     19   F      44             2.0161170    0.867482733183

     20   F      45             0.5734880    1.000000000000

     21   G      46             3.1098950    0.428615975933
     21   G      47             0.8477510    0.770538956734

 C         

     22   S      48          2806.9439975    0.002023800059
     22   S      49           421.5775504    0.015441100454
     22   S      50            95.8957402    0.075177402208
     22   S      51            26.9445497    0.249027707314
     22   S      52             8.5713784    0.482075214159
     22   S      53             2.8716364    0.326878109601

     23   S      54             4.9998841   -0.210680004154
     23   S      55             0.5327613    1.077681121247

     24   S      56             0.2075124    1.000000000000

     25   S      57             0.0868337    1.000000000000

     26   P      58            18.6818848    0.039471499719
     26   P      59             4.1250373    0.244388698258
     26   P      60             1.1979790    0.815218894188

     27   P      61             0.3821592    1.000000000000

     28   P      62             0.1206886    1.000000000000

     29   D      63             3.0148490    0.111983997300
     29   D      64             0.8820640    0.935464277443

     30   D      65             0.2854600    1.000000000000

     31   F      66             1.2468250    0.439684998371
     31   F      67             0.4390430    0.686338997457

 C         

     32   S      68          2806.9439975    0.002023800059
     32   S      69           421.5775504    0.015441100454
     32   S      70            95.8957402    0.075177402208
     32   S      71            26.9445497    0.249027707314
     32   S      72             8.5713784    0.482075214159
     32   S      73             2.8716364    0.326878109601

     33   S      74             4.9998841   -0.210680004154
     33   S      75             0.5327613    1.077681121247

     34   S      76             0.2075124    1.000000000000

     35   S      77             0.0868337    1.000000000000

     36   P      78            18.6818848    0.039471499719
     36   P      79             4.1250373    0.244388698258
     36   P      80             1.1979790    0.815218894188

     37   P      81             0.3821592    1.000000000000

     38   P      82             0.1206886    1.000000000000

     39   D      83             3.0148490    0.111983997300
     39   D      84             0.8820640    0.935464277443

     40   D      85             0.2854600    1.000000000000

     41   F      86             1.2468250    0.439684998371
     41   F      87             0.4390430    0.686338997457

 C         

     42   S      88          2806.9439975    0.002023800059
     42   S      89           421.5775504    0.015441100454
     42   S      90            95.8957402    0.075177402208
     42   S      91            26.9445497    0.249027707314
     42   S      92             8.5713784    0.482075214159
     42   S      93             2.8716364    0.326878109601

     43   S      94             4.9998841   -0.210680004154
     43   S      95             0.5327613    1.077681121247

     44   S      96             0.2075124    1.000000000000

     45   S      97             0.0868337    1.000000000000

     46   P      98            18.6818848    0.039471499719
     46   P      99             4.1250373    0.244388698258
     46   P     100             1.1979790    0.815218894188

     47   P     101             0.3821592    1.000000000000

     48   P     102             0.1206886    1.000000000000

     49   D     103             3.0148490    0.111983997300
     49   D     104             0.8820640    0.935464277443

     50   D     105             0.2854600    1.000000000000

     51   F     106             1.2468250    0.439684998371
     51   F     107             0.4390430    0.686338997457

 O         

     52   S     108          5077.7107079    0.002005200049
     52   S     109           762.6032479    0.015311300372
     52   S     110           173.4747916    0.074816301816
     52   S     111            48.8026730    0.249940906066
     52   S     112            15.6087813    0.483164411726
     52   S     113             5.2562810    0.324034307864

     53   S     114             9.8167720   -0.213008798624
     53   S     115             1.0626144    1.079351093025

     54   S     116             0.4112889    1.000000000000

     55   S     117             0.1672821    1.000000000000

     56   P     118            34.4309698    0.041201500385
     56   P     119             7.7428211    0.257878902408
     56   P     120             2.2788395    0.802283507490

     57   P     121             0.7151603    1.000000000000

     58   P     122             0.2137722    1.000000000000

     59   D     123             5.9603300    0.136289097514
     59   D     124             1.7648530    0.919489483226

     60   D     125             0.5756600    1.000000000000

     61   F     126             2.4143370    0.424090301385
     61   F     127             0.7676600    0.719405502349

 O         

     62   S     128          5077.7107079    0.002005200049
     62   S     129           762.6032479    0.015311300372
     62   S     130           173.4747916    0.074816301816
     62   S     131            48.8026730    0.249940906066
     62   S     132            15.6087813    0.483164411726
     62   S     133             5.2562810    0.324034307864

     63   S     134             9.8167720   -0.213008798624
     63   S     135             1.0626144    1.079351093025

     64   S     136             0.4112889    1.000000000000

     65   S     137             0.1672821    1.000000000000

     66   P     138            34.4309698    0.041201500385
     66   P     139             7.7428211    0.257878902408
     66   P     140             2.2788395    0.802283507490

     67   P     141             0.7151603    1.000000000000

     68   P     142             0.2137722    1.000000000000

     69   D     143             5.9603300    0.136289097514
     69   D     144             1.7648530    0.919489483226

     70   D     145             0.5756600    1.000000000000

     71   F     146             2.4143370    0.424090301385
     71   F     147             0.7676600    0.719405502349

 O         

     72   S     148          5077.7107079    0.002005200049
     72   S     149           762.6032479    0.015311300372
     72   S     150           173.4747916    0.074816301816
     72   S     151            48.8026730    0.249940906066
     72   S     152            15.6087813    0.483164411726
     72   S     153             5.2562810    0.324034307864

     73   S     154             9.8167720   -0.213008798624
     73   S     155             1.0626144    1.079351093025

     74   S     156             0.4112889    1.000000000000

     75   S     157             0.1672821    1.000000000000

     76   P     158            34.4309698    0.041201500385
     76   P     159             7.7428211    0.257878902408
     76   P     160             2.2788395    0.802283507490

     77   P     161             0.7151603    1.000000000000

     78   P     162             0.2137722    1.000000000000

     79   D     163             5.9603300    0.136289097514
     79   D     164             1.7648530    0.919489483226

     80   D     165             0.5756600    1.000000000000

     81   F     166             2.4143370    0.424090301385
     81   F     167             0.7676600    0.719405502349

 C         

     82   S     168          2806.9439975    0.002023800059
     82   S     169           421.5775504    0.015441100454
     82   S     170            95.8957402    0.075177402208
     82   S     171            26.9445497    0.249027707314
     82   S     172             8.5713784    0.482075214159
     82   S     173             2.8716364    0.326878109601

     83   S     174             4.9998841   -0.210680004154
     83   S     175             0.5327613    1.077681121247

     84   S     176             0.2075124    1.000000000000

     85   S     177             0.0868337    1.000000000000

     86   P     178            18.6818848    0.039471499719
     86   P     179             4.1250373    0.244388698258
     86   P     180             1.1979790    0.815218894188

     87   P     181             0.3821592    1.000000000000

     88   P     182             0.1206886    1.000000000000

     89   D     183             3.0148490    0.111983997300
     89   D     184             0.8820640    0.935464277443

     90   D     185             0.2854600    1.000000000000

     91   F     186             1.2468250    0.439684998371
     91   F     187             0.4390430    0.686338997457

 C         

     92   S     188          2806.9439975    0.002023800059
     92   S     189           421.5775504    0.015441100454
     92   S     190            95.8957402    0.075177402208
     92   S     191            26.9445497    0.249027707314
     92   S     192             8.5713784    0.482075214159
     92   S     193             2.8716364    0.326878109601

     93   S     194             4.9998841   -0.210680004154
     93   S     195             0.5327613    1.077681121247

     94   S     196             0.2075124    1.000000000000

     95   S     197             0.0868337    1.000000000000

     96   P     198            18.6818848    0.039471499719
     96   P     199             4.1250373    0.244388698258
     96   P     200             1.1979790    0.815218894188

     97   P     201             0.3821592    1.000000000000

     98   P     202             0.1206886    1.000000000000

     99   D     203             3.0148490    0.111983997300
     99   D     204             0.8820640    0.935464277443

    100   D     205             0.2854600    1.000000000000

    101   F     206             1.2468250    0.439684998371
    101   F     207             0.4390430    0.686338997457

 O         

    102   S     208          5077.7107079    0.002005200049
    102   S     209           762.6032479    0.015311300372
    102   S     210           173.4747916    0.074816301816
    102   S     211            48.8026730    0.249940906066
    102   S     212            15.6087813    0.483164411726
    102   S     213             5.2562810    0.324034307864

    103   S     214             9.8167720   -0.213008798624
    103   S     215             1.0626144    1.079351093025

    104   S     216             0.4112889    1.000000000000

    105   S     217             0.1672821    1.000000000000

    106   P     218            34.4309698    0.041201500385
    106   P     219             7.7428211    0.257878902408
    106   P     220             2.2788395    0.802283507490

    107   P     221             0.7151603    1.000000000000

    108   P     222             0.2137722    1.000000000000

    109   D     223             5.9603300    0.136289097514
    109   D     224             1.7648530    0.919489483226

    110   D     225             0.5756600    1.000000000000

    111   F     226             2.4143370    0.424090301385
    111   F     227             0.7676600    0.719405502349

 O         

    112   S     228          5077.7107079    0.002005200049
    112   S     229           762.6032479    0.015311300372
    112   S     230           173.4747916    0.074816301816
    112   S     231            48.8026730    0.249940906066
    112   S     232            15.6087813    0.483164411726
    112   S     233             5.2562810    0.324034307864

    113   S     234             9.8167720   -0.213008798624
    113   S     235             1.0626144    1.079351093025

    114   S     236             0.4112889    1.000000000000

    115   S     237             0.1672821    1.000000000000

    116   P     238            34.4309698    0.041201500385
    116   P     239             7.7428211    0.257878902408
    116   P     240             2.2788395    0.802283507490

    117   P     241             0.7151603    1.000000000000

    118   P     242             0.2137722    1.000000000000

    119   D     243             5.9603300    0.136289097514
    119   D     244             1.7648530    0.919489483226

    120   D     245             0.5756600    1.000000000000

    121   F     246             2.4143370    0.424090301385
    121   F     247             0.7676600    0.719405502349

 TOTAL NUMBER OF BASIS SET SHELLS             =  121
 NUMBER OF CARTESIAN GAUSSIAN BASIS FUNCTIONS =  435
 NOTE: THIS RUN WILL RESTRICT THE MO VARIATION SPACE TO SPHERICAL HARMONICS.
 THE NUMBER OF ORBITALS KEPT IN THE VARIATIONAL SPACE WILL BE PRINTED LATER.
 NUMBER OF ELECTRONS                          =   96
 CHARGE OF MOLECULE                           =    0
 SPIN MULTIPLICITY                            =    1
 NUMBER OF OCCUPIED ORBITALS (ALPHA)          =   48
 NUMBER OF OCCUPIED ORBITALS (BETA )          =   48
 TOTAL NUMBER OF ATOMS                        =   11
 THE NUCLEAR REPULSION ENERGY IS      758.8577141022

     ---------------------------------
     RELATIVISTIC WAVEFUNCTION OPTIONS
     ---------------------------------
     METHOD=LUT-IOTC NORDER= 2       NESOC=  0      MODEQR=      1
     NRATOM=  0      QMTTOL= 1.000E-10      QRTOL= 1.000E-10
     CLIGHT=137.03598950     TAU= 3.500E+00

 INTERNAL BASIS SET UNCONTRACTION FOR RESC/DK/IOTC/LUT-IOTC:
   247 SHELLS AND    808 AOS ARE CONSTRUCTED, COMPARED TO
   121 SHELLS AND    435 AOS IN THE CONTRACTED BASIS SET


     $CONTRL OPTIONS
     ---------------
 SCFTYP=MCSCF        RUNTYP=ENERGY       EXETYP=RUN     
 MPLEVL=       2     CITYP =NONE         CCTYP =NONE         VBTYP =NONE    
 DFTTYP=NONE         TDDFT =NONE    
 MULT  =       1     ICHARG=       0     NZVAR =       0     COORD =UNIQUE  
 PP    =NONE         RELWFN=LUT-IOTC     LOCAL =NONE         NUMGRD=       F
 ISPHER=       1     NOSYM =       1     MAXIT =     200     UNITS =ANGS    
 PLTORB=       F     MOLPLT=       F     AIMPAC=       F     FRIEND=        
 NPRINT=       7     IREST =       0     GEOM  =INPUT   
 NORMF =       0     NORMP =       0     ITOL  =      20     ICUT  =       9
 INTTYP=RYSQUAD      GRDTYP=BEST         QMTTOL= 1.0E-05

     $SYSTEM OPTIONS
     ---------------
  REPLICATED MEMORY=   300000000 WORDS (ON EVERY NODE).
 DISTRIBUTED MEMDDI=       15000 MILLION WORDS IN AGGREGATE,
 MEMDDI DISTRIBUTED OVER   3 PROCESSORS IS  5000000000 WORDS/PROCESSOR.
 TOTAL MEMORY REQUESTED ON EACH PROCESSOR=  5300000000 WORDS.
 TIMLIM=      525600.00 MINUTES, OR     365.0 DAYS.
 PARALL= T  BALTYP=  DLB     KDIAG=    3  COREFL= F
 MXSEQ2=     300 MXSEQ3=     150  mem10=         0

          ----------------
          PROPERTIES INPUT
          ----------------

     MOMENTS            FIELD           POTENTIAL          DENSITY
 IEMOM =       1   IEFLD =       0   IEPOT =       0   IEDEN =       0
 WHERE =COMASS     WHERE =NUCLEI     WHERE =NUCLEI     WHERE =NUCLEI  
 OUTPUT=BOTH       OUTPUT=BOTH       OUTPUT=BOTH       OUTPUT=BOTH    
 IEMINT=       0   IEFINT=       0                     IEDINT=       0
                                                       MORB  =       0

     -------------------------------
     INTEGRAL TRANSFORMATION OPTIONS
     -------------------------------
     NWORD  =            0
     CUTOFF = 1.0E-09     MPTRAN =       0
     DIRTRF =       T     AOINTS =DUP     

          ----------------------
          MCSCF INPUT PARAMETERS
          ----------------------
 CONVERGER SELECTION: FOCAS = F  SOSCF = F  FULLNR = T  QUD = F  JACOBI = F
 SECULAR EQUATION METHOD CISTEP = GMCCI   
 --- GENERAL INPUT OPTIONS:
 MAXIT =     100  MICIT =       1  ACURCY= 1.000E-06
 DAMP  =   0.000  CANONC=       T  ENGTOL= 1.000E-10
 EKT   =       F  NPUNCH=       2  NWORD =         0
 REGENERATE CI AFTER CONVERGENCE = NONE    
 DIABATIZATION AFTER CONVERGENCE =        F
 --- INPUT FOR FULLNR CONVERGER:
 METHOD=DM2       FORS  =       F  DROPC =       T
 LINSER=       F  FCORE =       F  NORB  =     435

          ----------------------
          INTEGRAL INPUT OPTIONS
          ----------------------
 NOPK  =       1 NORDER=       0 SCHWRZ=       T

 ------------------------------------------
 MULTIREFERENCE PERTURBATION THEORY CONTROL
 ------------------------------------------
 MRPT=GMCPT    READ CONVERGED MCSCF VECTORS= F


     ------------------------------------------
     THE POINT GROUP IS C1 , NAXIS= 1, ORDER= 1
     ------------------------------------------

 -- VARIATIONAL SPACE WILL BE RESTRICTED TO PURE SPHERICAL HARMONICS ONLY --
 AFTER EXCLUDING CONTAMINANT COMBINATIONS FROM THE CARTESIAN GAUSSIAN BASIS
 SET, THE NUMBER OF SPHERICAL HARMONICS KEPT IN THE VARIATION SPACE IS  369

     DIMENSIONS OF THE SYMMETRY SUBSPACES ARE
 A   =  369

 ..... DONE SETTING UP THE RUN .....
 CPU     0: STEP CPU TIME=     1.42 TOTAL CPU TIME=          1.4 (      0.0 MIN)
 TOTAL WALL CLOCK TIME=          1.8 SECONDS, CPU UTILIZATION IS    79.78%

          ********************
          1 ELECTRON INTEGRALS
          ********************
 TIME TO DO ORDINARY INTEGRALS=      0.07

 ======================================================================
      INFINITE-ORDER TWO-COMPONENT (IOTC) ONE-ELECTRON HAMILTONIAN
      WITH LOCAL UNITARY TRANSFORMATION (LUT) SCHEME
                                            CODED BY YUYA NAKAJIMA
             J. SEINO, H. NAKAI, J. CHEM. PHYS. 136, 244102 (2012)
             J. SEINO, H. NAKAI, J. CHEM. PHYS. 137, 144101 (2012)
             J. SEINO, H. NAKAI, J. CHEM. PHYS. 139, 034109 (2013)
        J. SEINO, H. NAKAI, INT. J. QUANTUM. CHEM. 115, 253 (2015)
 ======================================================================

 LUT-IOTC TRANSFORMATION FOR ATOM:    1
 THE SMALLEST EIGENVALUE OF THE OVERLAP MATRIX IS   5.23E-12
 THERE ARE     2 OVERLAP MATRIX EIGENVALUES LESS THAN   1.00E-10
 THE NUMBER OF LINEARLY INDEPENDENT ORBITALS KEPT IS   176

 LUT-IOTC TRANSFORMATION FOR ATOM:    2
 LUT-IOTC TRANSFORMATION FOR ATOM:    3
 LUT-IOTC TRANSFORMATION FOR ATOM:    4
 LUT-IOTC TRANSFORMATION FOR ATOM:    5
 LUT-IOTC TRANSFORMATION FOR ATOM:    6
 LUT-IOTC TRANSFORMATION FOR ATOM:    7
 LUT-IOTC TRANSFORMATION FOR ATOM:    8
 LUT-IOTC TRANSFORMATION FOR ATOM:    9
 LUT-IOTC TRANSFORMATION FOR ATOM:   10
 LUT-IOTC TRANSFORMATION FOR ATOM:   11

     -------------------------------------
     LUT-IOTC TRANSFORMATION FOR ATOM-PAIR
     -------------------------------------

                1 FE         2 C          3 C          4 C          5 O     

   1 FE      0.0000000    1.9442022 *  1.9447507 *  1.9449260 *  3.0851526 *
   2 C       1.9442022 *  0.0000000    3.3680556 *  3.3680438 *  1.1409852 *
   3 C       1.9447507 *  3.3680556 *  0.0000000    3.3684750 *  4.3933006  
   4 C       1.9449260 *  3.3680438 *  3.3684750 *  0.0000000    4.3932978  
   5 O       3.0851526 *  1.1409852 *  4.3933006    4.3932978    0.0000000  
   6 O       3.0876735 *  4.3951913    1.1429308 *  4.3955873    5.3459381  
   7 O       3.0878161 *  4.3951525    4.3955512    1.1428981 *  5.3459136  
   8 C       2.0030287 *  2.7988779 *  2.7922222 *  2.7831099 *  3.6812321  
   9 C       1.9995784 *  2.7854139 *  2.7927649 *  2.7904713 *  3.6783260  
  10 O       3.1380881 *  3.6966966    3.6886963    3.6888193    4.3995134  
  11 O       3.1389779 *  3.6871863    3.6957156    3.6957648    4.4024842  

                6 O          7 O          8 C          9 C         10 O     

   1 FE      3.0876735 *  3.0878161 *  2.0030287 *  1.9995784 *  3.1380881 *
   2 C       4.3951913    4.3951525    2.7988779 *  2.7854139 *  3.6966966  
   3 C       1.1429308 *  4.3955512    2.7922222 *  2.7927649 *  3.6886963  
   4 C       4.3955873    1.1428981 *  2.7831099 *  2.7904713 *  3.6888193  
   5 O       5.3459381    5.3459136    3.6812321    3.6783260    4.3995134  
   6 O       0.0000000    5.3480508    3.6839045    3.6797965    4.4020889  
   7 O       5.3480508    0.0000000    3.6729094    3.6770090    4.4022250  
   8 C       3.6839045    3.6729094    0.0000000    4.0025916    1.1351137 *
   9 C       3.6797965    3.6770090    4.0025916    0.0000000    5.1376658  
  10 O       4.4020889    4.4022250    1.1351137 *  5.1376658    0.0000000  
  11 O       4.4033722    4.4034195    5.1419945    1.1394030 *  6.2770660  

               11 O     

   1 FE      3.1389779 *
   2 C       3.6871863  
   3 C       3.6957156  
   4 C       3.6957648  
   5 O       4.4024842  
   6 O       4.4033722  
   7 O       4.4034195  
   8 C       5.1419945  
   9 C       1.1394030 *
  10 O       6.2770660  
  11 O       0.0000000  

  * ... TRANSFORMED ATOM PAIR (LESS THAN   3.500 ANGS.)

 TIME TO DO  RELATIVISTIC INTS=      0.93
 TIME TO DO   DIPOLE INTEGRALS=      0.05
 ...... END OF ONE-ELECTRON INTEGRALS ......
 CPU     0: STEP CPU TIME=     1.05 TOTAL CPU TIME=          2.5 (      0.0 MIN)
 TOTAL WALL CLOCK TIME=          3.3 SECONDS, CPU UTILIZATION IS    74.62%

          -------------
          GUESS OPTIONS
          -------------
          GUESS =MOREAD            NORB  =     369          NORDER=       1
          MIX   =       F          PRTMO =       F          PUNMO =       F
          TOLZ  = 1.0E-08          TOLE  = 1.0E-05
          SYMDEN=       F          PURIFY=       T

 INITIAL GUESS ORBITALS GENERATED BY MOREAD   ROUTINE.

 STATISTICS FOR GENERATION OF SYMMETRY ORBITAL -Q- MATRIX
 NUMBER OF CARTESIAN ATOMIC ORBITALS=        435
 NUMBER OF SPHERICAL CONTAMINANTS DROPPED=    66
 NUMBER OF LINEARLY DEPENDENT MOS DROPPED=     0
 TOTAL NUMBER OF MOS IN VARIATION SPACE=     369
 ORBITAL PURIFICATION WILL OCCUR

 SYMMETRIES FOR INITIAL GUESS ORBITALS FOLLOW.   BOTH SET(S).
    48 ORBITALS ARE OCCUPIED (   19 CORE ORBITALS).
     1=A        2=A        3=A        4=A        5=A        6=A        7=A   
     8=A        9=A       10=A       11=A       12=A       13=A       14=A   
    15=A       16=A       17=A       18=A       19=A       20=A       21=A   
    22=A       23=A       24=A       25=A       26=A       27=A       28=A   
    29=A       30=A       31=A       32=A       33=A       34=A       35=A   
    36=A       37=A       38=A       39=A       40=A       41=A       42=A   
    43=A       44=A       45=A       46=A       47=A       48=A       49=A   
    50=A       51=A       52=A       53=A       54=A       55=A       56=A   
    57=A       58=A       59=A       60=A       61=A       62=A       63=A   
    64=A       65=A       66=A       67=A       68=A       69=A       70=A   
    71=A       72=A       73=A       74=A       75=A       76=A       77=A   
    78=A       79=A       80=A       81=A       82=A       83=A       84=A   
    85=A       86=A       87=A       88=A       89=A       90=A       91=A   
    92=A       93=A       94=A       95=A       96=A       97=A       98=A   
    99=A      100=A      101=A      102=A      103=A      104=A      105=A   
   106=A      107=A      108=A      109=A      110=A      111=A      112=A   
   113=A      114=A      115=A      116=A      117=A      118=A      119=A   
   120=A      121=A      122=A      123=A      124=A      125=A      126=A   
   127=A      128=A      129=A      130=A      131=A      132=A      133=A   
   134=A      135=A      136=A      137=A      138=A      139=A      140=A   
   141=A      142=A      143=A      144=A      145=A      146=A      147=A   
   148=A      149=A      150=A      151=A      152=A      153=A      154=A   
   155=A      156=A      157=A      158=A      159=A      160=A      161=A   
   162=A      163=A      164=A      165=A      166=A      167=A      168=A   
   169=A      170=A      171=A      172=A      173=A      174=A      175=A   
   176=A      177=A      178=A      179=A      180=A      181=A      182=A   
   183=A      184=A      185=A      186=A      187=A      188=A      189=A   
   190=A      191=A      192=A      193=A      194=A      195=A      196=A   
   197=A      198=A      199=A      200=A      201=A      202=A      203=A   
   204=A      205=A      206=A      207=A      208=A      209=A      210=A   
   211=A      212=A      213=A      214=A      215=A      216=A      217=A   
   218=A      219=A      220=A      221=A      222=A      223=A      224=A   
   225=A      226=A      227=A      228=A      229=A      230=A      231=A   
   232=A      233=A      234=A      235=A      236=A      237=A      238=A   
   239=A      240=A      241=A      242=A      243=A      244=A      245=A   
   246=A      247=A      248=A      249=A      250=A      251=A      252=A   
   253=A      254=A      255=A      256=A      257=A      258=A      259=A   
   260=A      261=A      262=A      263=A      264=A      265=A      266=A   
   267=A      268=A      269=A      270=A      271=A      272=A      273=A   
   274=A      275=A      276=A      277=A      278=A      279=A      280=A   
   281=A      282=A      283=A      284=A      285=A      286=A      287=A   
   288=A      289=A      290=A      291=A      292=A      293=A      294=A   
   295=A      296=A      297=A      298=A      299=A      300=A      301=A   
   302=A      303=A      304=A      305=A      306=A      307=A      308=A   
   309=A      310=A      311=A      312=A      313=A      314=A      315=A   
   316=A      317=A      318=A      319=A      320=A      321=A      322=A   
   323=A      324=A      325=A      326=A      327=A      328=A      329=A   
   330=A      331=A      332=A      333=A      334=A      335=A      336=A   
   337=A      338=A      339=A      340=A      341=A      342=A      343=A   
   344=A      345=A      346=A      347=A      348=A      349=A      350=A   
   351=A      352=A      353=A      354=A      355=A      356=A      357=A   
   358=A      359=A      360=A      361=A      362=A      363=A      364=A   
   365=A      366=A      367=A      368=A      369=A   
 ...... END OF INITIAL ORBITAL SELECTION ......
 CPU     0: STEP CPU TIME=     4.55 TOTAL CPU TIME=          7.0 (      0.1 MIN)
 TOTAL WALL CLOCK TIME=          8.0 SECONDS, CPU UTILIZATION IS    87.97%

                    ----------------------
                    AO INTEGRAL TECHNOLOGY
                    ----------------------
     S,P,L SHELL ROTATED AXIS INTEGRALS, REPROGRAMMED BY
        KAZUYA ISHIMURA (IMS) AND JOSE SIERRA (SYNSTAR).
     S,P,D,L SHELL ROTATED AXIS INTEGRALS PROGRAMMED BY
        KAZUYA ISHIMURA (INSTITUTE FOR MOLECULAR SCIENCE).
     S,P,D,F,G SHELL TO TOTAL QUARTET ANGULAR MOMENTUM SUM 5,
        ERIC PROGRAM BY GRAHAM FLETCHER (ELORET AND NASA ADVANCED
        SUPERCOMPUTING DIVISION, AMES RESEARCH CENTER).
     S,P,D,F,G,L SHELL GENERAL RYS QUADRATURE PROGRAMMED BY
        MICHEL DUPUIS (PACIFIC NORTHWEST NATIONAL LABORATORY).

          --------------------
          2 ELECTRON INTEGRALS
          --------------------

 DIRECT SCF METHOD SKIPS INTEGRAL STORAGE ON DISK.
 DIRECT TRANSFORMATION SKIPS AO INTEGRAL STORAGE ON DISK.
  ...... END OF TWO-ELECTRON INTEGRALS .....
 STEP CPU TIME =     0.01 TOTAL CPU TIME =          7.0 (      0.1 MIN)
 TOTAL WALL CLOCK TIME=          8.0 SECONDS, CPU UTILIZATION IS    87.98%
 DDI: Creating Array [0] - 189225 x 1176 = 222528600 words.
 DDI: Creating Array [1] - 321 x 56448 = 18119808 words.
 DDI: Creating Array [2] - 1176 x 1176 = 1382976 words.
 DDI: Creating Array [3] - 94830 x 1176 = 111520080 words.

          -----------------
          MCSCF CALCULATION
          -----------------

 ----- NUCLEAR ENERGY ----- =       758.8577141022

     -------------------------------------------------
     GMC-PT/GMC-QDPT or general MCSCF input parameters
     -------------------------------------------------
 # of frozen core orbs. =        19 ->         0
 # of doubly occ. orbs. =        26
 # of active      orbs. =         3
 # of virtual     orbs. =       321
 # of active electrons  =         4
 # of states in CI      =         5
 Highest state in CI    =         5
 kstate =  1 1 1 1 1
 avecoe =  0.200 0.200 0.200 0.200 0.200
 State symmetry           = A           
 Assigned symmetry number = 1

 <<<Act. MO sym.: 111

 <<<Division of 1-ext.:  0 0 0
 <<<Division of 2-ext.:  0 1 2

 *** Reference space

 Reference type: ORMAS (= Occupation restricted multiple active space)
 # of orbitals          =  3
 # of minimum electrons =  4
 # of maximum electrons =  4
 State symmetry    =    1 (input)
 2*Sz              =    0 (input)
 Spin multiplicity =    1 (input)
 Dimension of reference space =         9  (from        15 walks)

 Dimension of reference space =         9  (from         9 walks)

 <<<Ionized spaces for Ref-CI:
      0:            9 /   -1-0:           18 /  0-1-0:           15

 EVALUATING EXCHANGE INTEGRALS FOR DIRECT INTEGRAL TRANSFORMATION
 SCHWARZ INEQUALITY OVERHEAD:     88390 INTEGRALS, T=        0.07

     --------------------------------------------
     PARTIAL TWO ELECTRON INTEGRAL TRANSFORMATION
     --------------------------------------------

 NUMBER OF CORE MOLECULAR ORBITALS     =   45
 NUMBER OF OCCUPIED MOLECULAR ORBITALS =   48
 TOTAL NUMBER OF MOLECULAR ORBITALS    =  369
 TOTAL NUMBER OF ATOMIC ORBITALS       =  435
 THRESHOLD FOR KEEPING TRANSFORMED 2E- INTEGRALS = 1.000E-09

 -------------------------------     ------------------------------
 DISTRIBUTED DATA TRANSFORMATION     PROGRAM WRITTEN BY G. FLETCHER
 -------------------------------     ------------------------------

 THE DISTRIBUTED MEMORY REQUIRED FOR THIS STEP IS MEMDDI=       354 MWORDS
 CREATING DISTRIBUTED STORAGE FOR [VIR OCC|VIR OCC] INTEGRALS
 CREATING DISTRIBUTED STORAGE FOR [VIR OCC|OCC OCC] INTEGRALS
 CREATING DISTRIBUTED STORAGE FOR [OCC OCC|OCC OCC] INTEGRALS
 CREATING DISTRIBUTED STORAGE FOR [VIR VIR|OCC OCC] INTEGRALS
 FOR    3 PROCESSORS, THE REPLICATED MEMORY NEEDED IS    13651953 WORDS.
 SCHWARZ INEQUALITY OVERHEAD:     88390 INTEGRALS, T=        0.06

      DIRECT 4-INDEX TRANSFORMATION 
      SCHWARZ INEQUALITY TEST SKIPPED   22139715 INTEGRAL BLOCKS
 ----- FROZEN CORE ENERGY =     -2585.6308830288
 ... END OF INTEGRAL TRANSFORMATION ...
 CPU     0: STEP CPU TIME=   617.74 TOTAL CPU TIME=        624.8 (     10.4 MIN)
 TOTAL WALL CLOCK TIME=        626.2 SECONDS, CPU UTILIZATION IS    99.77%

     --------------------------------     -----------------------------
     MCHF NEWTON-RAPHSON OPTIMIZATION     CODE WRITTEN BY MICHEL DUPUIS
     --------------------------------     -----------------------------
     PARALLEL VERSION WRITTEN BY G. FLETCHER (ELORET)
     NASA ADVANCED SUPERCOMPUTING DIVISION, AMES RESEARCH CENTER

 NUMBER OF INDEPENDENT ORBITAL ROTATION PARAMETERS = 15536
 ..... DONE SOLVING NEWTON-RAPHSON EQUATIONS .....
 CPU     0: STEP CPU TIME=    11.43 TOTAL CPU TIME=        636.2 (     10.6 MIN)
 TOTAL WALL CLOCK TIME=        642.1 SECONDS, CPU UTILIZATION IS    99.09%
 ..... DONE WITH NTN-RPH ORBITAL ROTATIONS ..... 
 CPU     0: STEP CPU TIME=     0.14 TOTAL CPU TIME=        636.3 (     10.6 MIN)
 TOTAL WALL CLOCK TIME=        642.2 SECONDS, CPU UTILIZATION IS    99.09%
 MAXIMUM MEMORY USED BY NTN-RPH CODE WAS   1884079 WORDS.

 ITER     TOTAL ENERGY      DEL(E)  LAGRANGIAN ASYMMETRY   SQCDF  MICIT   DAMP
   1    -1834.623124943 -0.623124943  0.105136   58   34 8.708E-02  1   0.0000
   2    -1834.699754365 -0.076629423  0.004830  189   34 5.000E-01  1   0.0000
   3    -1834.698084783  0.001669583  0.014115   64   48 6.327E-03  1   0.0000
   4    -1834.700297150 -0.002212367  0.001569   58   16 1.439E-02  1   0.0000
   5    -1834.700304663 -0.000007513  0.000352  353   18 1.170E-02  1   0.0000
   6    -1834.700310795 -0.000006133  0.000304  353   18 1.282E-02  1   0.0000
   7    -1834.700316215 -0.000005419  0.000899  241   18 9.546E-03  1   0.0000
   8    -1834.700321285 -0.000005071  0.000254  353   18 1.059E-02  1   0.0000
   9    -1834.700325398 -0.000004113  0.000270  353   18 6.591E-03  1   0.0000
  10    -1834.700328684 -0.000003286  0.000159  353   19 7.169E-03  1   0.0000
  11    -1834.700330997 -0.000002313  0.000188  353   19 3.682E-03  1   0.0000
  12    -1834.700332500 -0.000001502  0.000107  353   19 3.235E-03  1   0.0000
  13    -1834.700333332 -0.000000832  0.000096  353   19 1.132E-03  1   0.0000
  14    -1834.700333677 -0.000000345  0.000064   46   36 8.341E-04  1   0.0000
  15    -1834.700333850 -0.000000173  0.000027  353   19 2.190E-04  1   0.0000
  16    -1834.700333893 -0.000000042  0.000025  326   33 5.551E-05  1   0.0000
  17    -1834.700333902 -0.000000009  0.000019  308    5 8.810E-06  1   0.0000
  18    -1834.700333904 -0.000000002  0.000012   49   36 8.638E-07  1   0.0000
  19    -1834.700333904 -0.000000000  0.000023  358   18 2.062E-07  1   0.0000
  20    -1834.700333904 -0.000000000  0.000012  339   19 9.379E-10  1   0.0000
  21    -1834.700333904 -0.000000000  0.000001   46   40 1.250E-11  1   0.0000

          --------------------
          LAGRANGIAN CONVERGED
          --------------------

 FINAL MCSCF ENERGY IS    -1834.7003339044 AFTER  21 ITERATIONS

 -MCCI- BASED ON OPTIMIZED ORBITALS
 ----------------------------------

 PLEASE NOTE: IF THE ACTIVE ORBITALS ARE CANONICALIZED BELOW,
 THE FOLLOWING CI EXPANSION COEFFICIENTS AND THE DENSITY DO NOT
 CORRESPOND TO THE PRINTED ORBITALS.  THE PRINTED EXPANSIONS MATCH
 THE ORBITALS USED DURING THE LAST ITERATION.  IF YOU WISH TO SEE
 CI EXPANSIONS BASED ON THE CANONICAL (OR NATURAL) ORBITALS, YOU
 MUST RUN A CI CALCULATION WITH THAT ORBITAL CHOICE READ IN $VEC.

 Averaged energy =   -1834.700333904

 State #    1  Energy =   -1834.730880191  S =  0.000

      Det      Coef    Occupancy (Ignoring core)
      ---      ----    --------- --------- -----
        1   -0.669572  110110
        2    0.095713  101110
        4    0.095713  110101
        5    0.730307  101101

 State #    2  Energy =   -1834.730329500  S =  0.000

      Det      Coef    Occupancy (Ignoring core)
      ---      ----    --------- --------- -----
        1    0.104116  110110
        2    0.700494  101110
        4    0.700494  110101
        5   -0.088156  101101

 State #    3  Energy =   -1834.706675861  S =  0.000

      Det      Coef    Occupancy (Ignoring core)
      ---      ----    --------- --------- -----
        1    0.707576  110110
        5    0.651557  101101
        9   -0.272981  011011

 State #    4  Energy =   -1834.667473169  S =  0.000

      Det      Coef    Occupancy (Ignoring core)
      ---      ----    --------- --------- -----
        6   -0.707105  011101
        8   -0.707105  101011

 State #    5  Energy =   -1834.666310801  S =  0.000

      Det      Coef    Occupancy (Ignoring core)
      ---      ----    --------- --------- -----
        3   -0.707103  011110
        7   -0.707103  110011

 DENSITY MATRIX OVER ACTIVE MO-S

             1           2           3

    1    1.5701892
    2    0.0002490   1.2137428
    3   -0.0005666   0.0003036   1.2160680

 FORMING THE "STANDARD FOCK OPERATOR" IN DIRECT AO INTEGRAL MODE...
 ONLY THE   45 CORE AND  321 VIRTUAL ORBITALS WILL BE CANONICALIZED

          ----------------------
          MCSCF NATURAL ORBITALS
          ----------------------

                      1          2          3          4          5
                 -264.1241   -32.8972   -27.9709   -27.9640   -27.9619
                     A          A          A          A          A   
    1  FE 1  S    0.997452  -0.320476   0.000002   0.000002   0.000015
    2  FE 1  S    0.012078   1.048916  -0.000006  -0.000006  -0.000048
    3  FE 1  S    0.003892   0.029015  -0.000001   0.000002   0.000004
    4  FE 1  S   -0.007458  -0.015037   0.000001  -0.000000   0.000002
    5  FE 1  S    0.000860  -0.000384  -0.000002  -0.000008  -0.000037
    6  FE 1  S   -0.001529  -0.003569   0.000003   0.000006   0.000027
    7  FE 1  S    0.001097   0.002668  -0.000000   0.000021   0.000102
    8  FE 1  S   -0.000052  -0.000176  -0.000001   0.000002   0.000012
    9  FE 1  X    0.000000   0.000049  -0.000647   0.070054   0.994959
   10  FE 1  Y    0.000000   0.000004  -0.001125   0.994959  -0.070055
   11  FE 1  Z   -0.000000   0.000006   0.997447   0.001168   0.000566
   12  FE 1  X   -0.000000   0.000007  -0.000000   0.000033   0.000422
   13  FE 1  Y    0.000000   0.000001  -0.000001   0.000464  -0.000030
   14  FE 1  Z    0.000000   0.000001   0.000524   0.000000   0.000000
   15  FE 1  X   -0.000000  -0.000029  -0.000007   0.000655   0.009422
   16  FE 1  Y   -0.000000  -0.000004  -0.000009   0.009311  -0.000664
   17  FE 1  Z   -0.000000  -0.000002   0.009134   0.000011   0.000005
   18  FE 1  X    0.000000   0.000060   0.000003  -0.000203  -0.003032
   19  FE 1  Y    0.000000   0.000009   0.000001  -0.002886   0.000214
   20  FE 1  Z    0.000002   0.000006  -0.002977  -0.000003  -0.000000
   21  FE 1  X   -0.000001  -0.000090  -0.000002   0.000125   0.001986
   22  FE 1  Y   -0.000001  -0.000014   0.000000   0.001771  -0.000140
   23  FE 1  Z   -0.000003  -0.000012   0.002015   0.000001   0.000001
   24  FE 1  X    0.000004   0.000022   0.000002   0.000044   0.000790
   25  FE 1  Y   -0.000001   0.000001  -0.000002   0.000644  -0.000057
   26  FE 1  Z    0.000007   0.000016  -0.000712   0.000010  -0.000014
   27  FE 1 XX   -0.000001  -0.000423  -0.000001   0.000006   0.000064
   28  FE 1 YY    0.000000  -0.000075  -0.000001  -0.000003  -0.000049
   29  FE 1 ZZ    0.000001   0.000498   0.000002  -0.000002  -0.000014
   30  FE 1 XY    0.000000   0.000029  -0.000000  -0.000055   0.000004
   31  FE 1 XZ    0.000000   0.000000   0.000011   0.000000   0.000002
   32  FE 1 YZ   -0.000000  -0.000000   0.000002   0.000001  -0.000000
   33  FE 1 XX    0.000000   0.000323   0.000001   0.000001   0.000022
   34  FE 1 YY   -0.000001   0.000136   0.000001  -0.000006  -0.000047
   35  FE 1 ZZ    0.000001  -0.000459  -0.000002   0.000005   0.000025
   36  FE 1 XY   -0.000000  -0.000016  -0.000000  -0.000071   0.000004
   37  FE 1 XZ   -0.000000  -0.000001  -0.000006  -0.000001  -0.000002
   38  FE 1 YZ    0.000000   0.000002  -0.000000  -0.000001  -0.000001
   39  FE 1 XX    0.000014  -0.000147  -0.000000  -0.000014  -0.000202
   40  FE 1 YY    0.000015  -0.000094  -0.000001   0.000015   0.000206
   41  FE 1 ZZ   -0.000029   0.000241   0.000002  -0.000000  -0.000004
   42  FE 1 XY    0.000000   0.000005   0.000000   0.000244  -0.000017
   43  FE 1 XZ    0.000001   0.000004   0.000008   0.000002   0.000001
   44  FE 1 YZ   -0.000001  -0.000004   0.000001  -0.000001   0.000002
   45  FE 1 XX   -0.000055   0.000135  -0.000000   0.000050   0.000767
   46  FE 1 YY   -0.000057   0.000186   0.000001  -0.000040  -0.000716
   47  FE 1 ZZ    0.000112  -0.000321  -0.000001  -0.000010  -0.000051
   48  FE 1 XY    0.000000   0.000005  -0.000001  -0.000745   0.000061
   49  FE 1 XZ   -0.000001  -0.000002  -0.000030  -0.000004  -0.000003
   50  FE 1 YZ    0.000000   0.000003  -0.000004   0.000001  -0.000004
   51  FE 1 XXX   0.000010   0.000043  -0.000001  -0.000027  -0.000507
   52  FE 1 YYY   0.000000   0.000000  -0.000001  -0.000218   0.000022
   53  FE 1 ZZZ   0.000000   0.000000  -0.000824   0.000002   0.000001
   54  FE 1 XXY   0.000000   0.000000  -0.000001  -0.000166   0.000028
   55  FE 1 XXZ  -0.000000  -0.000000   0.000716  -0.000001  -0.000001
   56  FE 1 YYX  -0.000013  -0.000057  -0.000000   0.000003  -0.000138
   57  FE 1 YYZ  -0.000000  -0.000000   0.000391  -0.000002  -0.000000
   58  FE 1 ZZX  -0.000000   0.000000   0.000001   0.000032   0.000818
   59  FE 1 ZZY  -0.000000  -0.000000   0.000003   0.000459  -0.000058
   60  FE 1 XYZ  -0.000000  -0.000000  -0.000027  -0.000001  -0.000002
   61  FE 1 XXX  -0.000054  -0.000210   0.000000   0.000009   0.000128
   62  FE 1 YYY  -0.000000  -0.000001   0.000000   0.000057  -0.000005
   63  FE 1 ZZZ  -0.000000  -0.000002   0.000178  -0.000001   0.000000
   64  FE 1 XXY  -0.000000  -0.000000   0.000000   0.000047  -0.000007
   65  FE 1 XXZ   0.000000   0.000002  -0.000130   0.000000  -0.000000
   66  FE 1 YYX   0.000073   0.000273   0.000000  -0.000003   0.000019
   67  FE 1 YYZ   0.000000   0.000001  -0.000108   0.000001   0.000000
   68  FE 1 ZZX  -0.000000   0.000009  -0.000001  -0.000009  -0.000191
   69  FE 1 ZZY   0.000000   0.000002  -0.000000  -0.000124   0.000013
   70  FE 1 XYZ   0.000000   0.000001   0.000002  -0.000000   0.000001
   71  FE 1XXXX  -0.000006  -0.000114   0.000000   0.000001   0.000022
   72  FE 1YYYY  -0.000006  -0.000063   0.000000   0.000000   0.000006
   73  FE 1ZZZZ  -0.000015  -0.000230   0.000000   0.000000   0.000000
   74  FE 1XXXY  -0.000000   0.000003   0.000000   0.000010  -0.000001
   75  FE 1XXXZ   0.000000  -0.000000  -0.000001   0.000000  -0.000000
   76  FE 1YYYX   0.000000   0.000003  -0.000000  -0.000017   0.000002
   77  FE 1YYYZ  -0.000000  -0.000001  -0.000000  -0.000000  -0.000000
   78  FE 1ZZZX  -0.000000   0.000000   0.000001   0.000000  -0.000000
   79  FE 1ZZZY   0.000000   0.000001   0.000000   0.000000   0.000000
   80  FE 1XXYY  -0.000003  -0.000046  -0.000000  -0.000001  -0.000024
   81  FE 1XXZZ   0.000013   0.000247  -0.000000  -0.000001  -0.000014
   82  FE 1YYZZ   0.000013   0.000157  -0.000000   0.000001   0.000013
   83  FE 1XXYZ  -0.000000  -0.000001  -0.000000  -0.000000  -0.000000
   84  FE 1YYXZ  -0.000000  -0.000000  -0.000001  -0.000000   0.000000
   85  FE 1ZZXY  -0.000000  -0.000007   0.000000   0.000010  -0.000001
   86  C  2  S   -0.000015  -0.000044   0.000000   0.000039  -0.000030
   87  C  2  S   -0.000119  -0.000399   0.000001   0.000206  -0.000164
   88  C  2  S    0.000318   0.000889  -0.000008  -0.000670   0.000517
   89  C  2  S   -0.000007  -0.000103   0.000001  -0.000343   0.000249
   90  C  2  X   -0.000006  -0.000028  -0.000000  -0.000001   0.000001
   91  C  2  Y    0.000010   0.000054   0.000000   0.000001   0.000002
   92  C  2  Z    0.000000   0.000001   0.000002  -0.000000   0.000000
   93  C  2  X    0.000030   0.000149   0.000001  -0.000032   0.000031
   94  C  2  Y   -0.000052  -0.000265  -0.000001   0.000064  -0.000052
   95  C  2  Z   -0.000001  -0.000002   0.000002   0.000001  -0.000001
   96  C  2  X   -0.000138  -0.000483   0.000003  -0.000248   0.000250
   97  C  2  Y    0.000238   0.000825  -0.000005   0.000502  -0.000323
   98  C  2  Z   -0.000001  -0.000004   0.000036  -0.000001   0.000001
   99  C  2 XX    0.000003   0.000013   0.000000  -0.000003   0.000000
  100  C  2 YY   -0.000013  -0.000055  -0.000000  -0.000000   0.000002
  101  C  2 ZZ    0.000010   0.000042   0.000000   0.000003  -0.000002
  102  C  2 XY    0.000015   0.000062   0.000000   0.000003   0.000000
  103  C  2 XZ   -0.000000  -0.000000  -0.000002  -0.000000  -0.000000
  104  C  2 YZ    0.000000   0.000000   0.000004  -0.000000  -0.000000
  105  C  2 XX   -0.000015  -0.000046   0.000000   0.000055  -0.000026
  106  C  2 YY    0.000078   0.000216  -0.000001  -0.000208   0.000142
  107  C  2 ZZ   -0.000062  -0.000170   0.000001   0.000153  -0.000116
  108  C  2 XY   -0.000093  -0.000257   0.000001   0.000242  -0.000196
  109  C  2 XZ    0.000000   0.000001  -0.000016   0.000000  -0.000000
  110  C  2 YZ   -0.000000  -0.000001   0.000028  -0.000000   0.000000
  111  C  2 XXX  -0.000021  -0.000092  -0.000000  -0.000012   0.000008
  112  C  2 YYY  -0.000017  -0.000072  -0.000000  -0.000007   0.000001
  113  C  2 ZZZ   0.000000   0.000001  -0.000001  -0.000000   0.000000
  114  C  2 XXY  -0.000007  -0.000025   0.000000  -0.000007   0.000007
  115  C  2 XXZ  -0.000000  -0.000000  -0.000001   0.000000   0.000000
  116  C  2 YYX   0.000045   0.000192   0.000000   0.000026  -0.000016
  117  C  2 YYZ  -0.000000  -0.000002   0.000002   0.000000  -0.000000
  118  C  2 ZZX  -0.000017  -0.000068   0.000000  -0.000010   0.000006
  119  C  2 ZZY   0.000030   0.000121   0.000000   0.000016  -0.000008
  120  C  2 XYZ   0.000000   0.000001   0.000001  -0.000000   0.000000
  121  C  3  S   -0.000015  -0.000042  -0.000000  -0.000042  -0.000023
  122  C  3  S   -0.000118  -0.000390  -0.000001  -0.000217  -0.000125
  123  C  3  S    0.000317   0.000871   0.000005   0.000718   0.000400
  124  C  3  S   -0.000008  -0.000106  -0.000001   0.000359   0.000187
  125  C  3  X   -0.000006  -0.000028   0.000000   0.000001   0.000001
  126  C  3  Y   -0.000010  -0.000053   0.000000   0.000002  -0.000001
  127  C  3  Z   -0.000000  -0.000000   0.000002  -0.000000  -0.000000
  128  C  3  X    0.000030   0.000141  -0.000000   0.000031   0.000023
  129  C  3  Y    0.000051   0.000249  -0.000000   0.000061   0.000035
  130  C  3  Z    0.000000   0.000001  -0.000000   0.000001   0.000000
  131  C  3  X   -0.000138  -0.000482  -0.000002   0.000271   0.000205
  132  C  3  Y   -0.000239  -0.000825  -0.000003   0.000525   0.000236
  133  C  3  Z    0.000001   0.000002   0.000035  -0.000001   0.000000
  134  C  3 XX    0.000003   0.000012   0.000000   0.000003  -0.000001
  135  C  3 YY   -0.000013  -0.000054   0.000000   0.000001   0.000002
  136  C  3 ZZ    0.000010   0.000041  -0.000000  -0.000004  -0.000002
  137  C  3 XY   -0.000015  -0.000061   0.000000   0.000003  -0.000001
  138  C  3 XZ    0.000000   0.000000  -0.000002  -0.000000  -0.000000
  139  C  3 YZ    0.000000   0.000000  -0.000003   0.000000   0.000000
  140  C  3 XX   -0.000015  -0.000045  -0.000000  -0.000057  -0.000015
  141  C  3 YY    0.000077   0.000211   0.000001   0.000219   0.000104
  142  C  3 ZZ   -0.000062  -0.000166  -0.000001  -0.000162  -0.000089
  143  C  3 XY    0.000093   0.000252   0.000001   0.000259   0.000154
  144  C  3 XZ   -0.000000  -0.000000  -0.000018   0.000000   0.000000
  145  C  3 YZ   -0.000000  -0.000000  -0.000031   0.000000   0.000000
  146  C  3 XXX  -0.000020  -0.000090   0.000000   0.000014   0.000007
  147  C  3 YYY   0.000017   0.000069   0.000000  -0.000008  -0.000002
  148  C  3 ZZZ  -0.000000  -0.000001   0.000000  -0.000000  -0.000000
  149  C  3 XXY   0.000007   0.000025   0.000000  -0.000008  -0.000005
  150  C  3 XXZ   0.000000   0.000000  -0.000001   0.000000   0.000000
  151  C  3 YYX   0.000045   0.000187   0.000000  -0.000031  -0.000014
  152  C  3 YYZ   0.000000   0.000001   0.000001   0.000000   0.000000
  153  C  3 ZZX  -0.000017  -0.000066  -0.000000   0.000012   0.000005
  154  C  3 ZZY  -0.000030  -0.000118  -0.000000   0.000019   0.000007
  155  C  3 XYZ   0.000000   0.000001  -0.000002   0.000000   0.000000
  156  C  4  S   -0.000015  -0.000053  -0.000000   0.000004   0.000058
  157  C  4  S   -0.000118  -0.000432  -0.000000   0.000020   0.000337
  158  C  4  S    0.000315   0.000965   0.000004  -0.000059  -0.000963
  159  C  4  S   -0.000009  -0.000099  -0.000000  -0.000034  -0.000527
  160  C  4  X    0.000011   0.000066  -0.000000  -0.000001  -0.000013
  161  C  4  Y    0.000000   0.000000  -0.000000   0.000003  -0.000000
  162  C  4  Z   -0.000000  -0.000000  -0.000001   0.000000   0.000000
  163  C  4  X   -0.000059  -0.000386   0.000001   0.000011   0.000187
  164  C  4  Y   -0.000000  -0.000001   0.000000  -0.000002   0.000001
  165  C  4  Z    0.000000   0.000001   0.000012  -0.000000  -0.000001
  166  C  4  X    0.000278   0.000971   0.000004   0.000053   0.000820
  167  C  4  Y    0.000000  -0.000001   0.000000   0.000063  -0.000004
  168  C  4  Z    0.000000   0.000001   0.000039  -0.000000   0.000001
  169  C  4 XX   -0.000020  -0.000092   0.000000   0.000000   0.000005
  170  C  4 YY    0.000010   0.000046  -0.000000  -0.000000  -0.000005
  171  C  4 ZZ    0.000010   0.000046  -0.000000   0.000000  -0.000000
  172  C  4 XY    0.000000  -0.000000   0.000000   0.000001   0.000000
  173  C  4 XZ   -0.000000   0.000000   0.000009  -0.000000  -0.000000
  174  C  4 YZ    0.000000   0.000000   0.000000  -0.000000  -0.000000
  175  C  4 XX    0.000123   0.000371   0.000001  -0.000030  -0.000477
  176  C  4 YY   -0.000062  -0.000187  -0.000001   0.000016   0.000251
  177  C  4 ZZ   -0.000062  -0.000184  -0.000000   0.000014   0.000226
  178  C  4 XY    0.000000   0.000000  -0.000000  -0.000010   0.000001
  179  C  4 XZ    0.000000   0.000000   0.000016   0.000000   0.000001
  180  C  4 YZ   -0.000000  -0.000000   0.000000   0.000000   0.000000
  181  C  4 XXX  -0.000049  -0.000231   0.000000  -0.000001  -0.000007
  182  C  4 YYY   0.000000   0.000001   0.000000   0.000005  -0.000001
  183  C  4 ZZZ  -0.000000  -0.000001  -0.000007   0.000000   0.000000
  184  C  4 XXY  -0.000000  -0.000001  -0.000000  -0.000008   0.000002
  185  C  4 XXZ   0.000000   0.000002   0.000012  -0.000000  -0.000001
  186  C  4 YYX   0.000032   0.000154  -0.000000   0.000001   0.000007
  187  C  4 YYZ  -0.000000  -0.000000  -0.000003  -0.000000   0.000000
  188  C  4 ZZX   0.000035   0.000156  -0.000000   0.000001   0.000002
  189  C  4 ZZY   0.000000   0.000000   0.000000   0.000001  -0.000000
  190  C  4 XYZ  -0.000000  -0.000000   0.000000   0.000000  -0.000000
  191  O  5  S   -0.000000  -0.000004  -0.000000  -0.000004   0.000003
  192  O  5  S    0.000009   0.000028  -0.000000  -0.000019   0.000015
  193  O  5  S    0.000011   0.000196   0.000002   0.000358  -0.000263
  194  O  5  S   -0.000368  -0.001197   0.000008  -0.000295   0.000204
  195  O  5  X   -0.000000  -0.000005  -0.000000  -0.000000   0.000001
  196  O  5  Y    0.000000   0.000002   0.000000   0.000002  -0.000001
  197  O  5  Z   -0.000000  -0.000001   0.000000  -0.000000   0.000000
  198  O  5  X    0.000015   0.000083   0.000001   0.000037  -0.000008
  199  O  5  Y   -0.000026  -0.000146  -0.000001  -0.000051   0.000045
  200  O  5  Z    0.000001   0.000004  -0.000007   0.000001  -0.000001
  201  O  5  X   -0.000050  -0.000150   0.000001  -0.000019  -0.000009
  202  O  5  Y    0.000086   0.000258  -0.000002   0.000011  -0.000017
  203  O  5  Z   -0.000001  -0.000003  -0.000031   0.000001  -0.000000
  204  O  5 XX   -0.000001  -0.000004  -0.000000  -0.000000   0.000001
  205  O  5 YY    0.000004   0.000018   0.000000   0.000005  -0.000005
  206  O  5 ZZ   -0.000003  -0.000014   0.000000  -0.000005   0.000004
  207  O  5 XY   -0.000005  -0.000023  -0.000000  -0.000006   0.000003
  208  O  5 XZ    0.000000   0.000000   0.000002  -0.000000  -0.000000
  209  O  5 YZ   -0.000000  -0.000001  -0.000002  -0.000000  -0.000000
  210  O  5 XX   -0.000002  -0.000006   0.000000  -0.000001  -0.000002
  211  O  5 YY    0.000010   0.000042   0.000000  -0.000015   0.000015
  212  O  5 ZZ   -0.000009  -0.000036  -0.000000   0.000015  -0.000013
  213  O  5 XY   -0.000012  -0.000053  -0.000000   0.000020  -0.000014
  214  O  5 XZ    0.000000   0.000001  -0.000008   0.000000   0.000000
  215  O  5 YZ   -0.000000  -0.000002   0.000012  -0.000000   0.000000
  216  O  5 XXX  -0.000005  -0.000018  -0.000000   0.000002  -0.000002
  217  O  5 YYY  -0.000004  -0.000013   0.000000   0.000002  -0.000002
  218  O  5 ZZZ  -0.000000  -0.000001   0.000001   0.000000  -0.000000
  219  O  5 XXY  -0.000002  -0.000008  -0.000000   0.000002  -0.000001
  220  O  5 XXZ   0.000000   0.000000  -0.000000  -0.000000   0.000000
  221  O  5 YYX   0.000011   0.000039   0.000000  -0.000006   0.000005
  222  O  5 YYZ   0.000000   0.000001  -0.000001  -0.000000   0.000000
  223  O  5 ZZX  -0.000004  -0.000015  -0.000000   0.000003  -0.000003
  224  O  5 ZZY   0.000007   0.000025   0.000000  -0.000005   0.000004
  225  O  5 XYZ  -0.000000  -0.000001   0.000002   0.000000  -0.000000
  226  O  6  S   -0.000000  -0.000004   0.000000   0.000005   0.000003
  227  O  6  S    0.000009   0.000027   0.000000   0.000020   0.000012
  228  O  6  S    0.000012   0.000191  -0.000001  -0.000388  -0.000206
  229  O  6  S   -0.000368  -0.001191  -0.000005   0.000312   0.000155
  230  O  6  X   -0.000000  -0.000005   0.000000   0.000000   0.000001
  231  O  6  Y   -0.000000  -0.000002   0.000000   0.000002   0.000001
  232  O  6  Z    0.000000   0.000000   0.000000  -0.000000  -0.000000
  233  O  6  X    0.000015   0.000080  -0.000000  -0.000040  -0.000004
  234  O  6  Y    0.000025   0.000141  -0.000000  -0.000060  -0.000039
  235  O  6  Z   -0.000000  -0.000002  -0.000006   0.000001   0.000000
  236  O  6  X   -0.000050  -0.000150  -0.000001   0.000016  -0.000011
  237  O  6  Y   -0.000086  -0.000258  -0.000001   0.000012   0.000015
  238  O  6  Z    0.000001   0.000001  -0.000031   0.000000  -0.000000
  239  O  6 XX   -0.000001  -0.000004   0.000000   0.000000   0.000001
  240  O  6 YY    0.000004   0.000018   0.000000  -0.000006  -0.000004
  241  O  6 ZZ   -0.000003  -0.000014  -0.000000   0.000005   0.000003
  242  O  6 XY    0.000005   0.000022   0.000000  -0.000007  -0.000003
  243  O  6 XZ   -0.000000  -0.000000   0.000002   0.000000   0.000000
  244  O  6 YZ   -0.000000  -0.000000   0.000003   0.000000   0.000000
  245  O  6 XX   -0.000002  -0.000006  -0.000000   0.000000  -0.000002
  246  O  6 YY    0.000010   0.000041  -0.000000   0.000015   0.000011
  247  O  6 ZZ   -0.000008  -0.000034   0.000000  -0.000016  -0.000010
  248  O  6 XY    0.000012   0.000051  -0.000000   0.000020   0.000010
  249  O  6 XZ   -0.000000  -0.000001  -0.000008   0.000000  -0.000000
  250  O  6 YZ   -0.000000  -0.000001  -0.000012   0.000000   0.000000
  251  O  6 XXX  -0.000005  -0.000018  -0.000000  -0.000002  -0.000001
  252  O  6 YYY   0.000004   0.000013   0.000000   0.000002   0.000002
  253  O  6 ZZZ   0.000000   0.000001   0.000001   0.000000   0.000000
  254  O  6 XXY   0.000002   0.000007  -0.000000   0.000002   0.000001
  255  O  6 XXZ  -0.000000  -0.000000  -0.000000   0.000000  -0.000000
  256  O  6 YYX   0.000011   0.000039   0.000000   0.000006   0.000004
  257  O  6 YYZ  -0.000000  -0.000001  -0.000001  -0.000000  -0.000000
  258  O  6 ZZX  -0.000004  -0.000014  -0.000000  -0.000003  -0.000002
  259  O  6 ZZY  -0.000007  -0.000024  -0.000000  -0.000005  -0.000003
  260  O  6 XYZ  -0.000000  -0.000001  -0.000001  -0.000000  -0.000000
  261  O  7  S   -0.000000  -0.000004   0.000000  -0.000000  -0.000005
  262  O  7  S    0.000009   0.000028  -0.000000  -0.000002  -0.000031
  263  O  7  S    0.000012   0.000230  -0.000001   0.000029   0.000449
  264  O  7  S   -0.000369  -0.001232  -0.000005  -0.000028  -0.000414
  265  O  7  X    0.000000   0.000010  -0.000000   0.000000   0.000001
  266  O  7  Y   -0.000000  -0.000001  -0.000000   0.000001   0.000000
  267  O  7  Z    0.000000   0.000000   0.000001   0.000000   0.000000
  268  O  7  X   -0.000029  -0.000192   0.000001  -0.000004  -0.000051
  269  O  7  Y    0.000000  -0.000000   0.000000   0.000018  -0.000002
  270  O  7  Z   -0.000000  -0.000002  -0.000010  -0.000000  -0.000000
  271  O  7  X    0.000100   0.000305   0.000002   0.000002   0.000033
  272  O  7  Y   -0.000000  -0.000000  -0.000000  -0.000020   0.000001
  273  O  7  Z    0.000001   0.000002  -0.000027   0.000000  -0.000000
  274  O  7 XX    0.000007   0.000032  -0.000000   0.000001   0.000008
  275  O  7 YY   -0.000004  -0.000017   0.000000  -0.000000  -0.000003
  276  O  7 ZZ   -0.000003  -0.000016   0.000000  -0.000000  -0.000005
  277  O  7 XY   -0.000000  -0.000000  -0.000000  -0.000002   0.000000
  278  O  7 XZ    0.000000   0.000000  -0.000001  -0.000000  -0.000000
  279  O  7 YZ   -0.000000  -0.000000   0.000000   0.000000   0.000000
  280  O  7 XX    0.000016   0.000081  -0.000000  -0.000003  -0.000051
  281  O  7 YY   -0.000008  -0.000039   0.000000   0.000001   0.000022
  282  O  7 ZZ   -0.000009  -0.000042   0.000000   0.000002   0.000029
  283  O  7 XY   -0.000000  -0.000000  -0.000000   0.000002   0.000000
  284  O  7 XZ    0.000000   0.000001   0.000016   0.000000  -0.000000
  285  O  7 YZ    0.000000   0.000000  -0.000000  -0.000000  -0.000000
  286  O  7 XXX  -0.000012  -0.000046   0.000000   0.000001   0.000015
  287  O  7 YYY  -0.000000  -0.000000  -0.000000  -0.000000   0.000000
  288  O  7 ZZZ   0.000000   0.000001   0.000003  -0.000000  -0.000000
  289  O  7 XXY   0.000000   0.000000   0.000000   0.000001  -0.000000
  290  O  7 XXZ  -0.000000  -0.000001  -0.000005   0.000000   0.000000
  291  O  7 YYX   0.000008   0.000030  -0.000000  -0.000000  -0.000008
  292  O  7 YYZ   0.000000   0.000000   0.000001  -0.000000  -0.000000
  293  O  7 ZZX   0.000008   0.000032  -0.000000  -0.000001  -0.000012
  294  O  7 ZZY  -0.000000  -0.000000  -0.000000  -0.000000   0.000000
  295  O  7 XYZ  -0.000000  -0.000000   0.000000   0.000000  -0.000000
  296  C  8  S   -0.000006  -0.000026  -0.000037  -0.000000  -0.000001
  297  C  8  S   -0.000061  -0.000265  -0.000251  -0.000002  -0.000010
  298  C  8  S    0.000084   0.000250   0.000808   0.000003   0.000014
  299  C  8  S   -0.000028   0.000159  -0.000187   0.000003   0.000008
  300  C  8  X    0.000000   0.000001   0.000001   0.000000   0.000001
  301  C  8  Y   -0.000000  -0.000000   0.000000   0.000003  -0.000000
  302  C  8  Z   -0.000005  -0.000038  -0.000020  -0.000000  -0.000002
  303  C  8  X   -0.000000  -0.000001  -0.000005  -0.000001  -0.000001
  304  C  8  Y   -0.000000   0.000000  -0.000000  -0.000008  -0.000000
  305  C  8  Z    0.000026   0.000306   0.000069   0.000002   0.000011
  306  C  8  X   -0.000000  -0.000001  -0.000004   0.000001   0.000017
  307  C  8  Y   -0.000000  -0.000002  -0.000001   0.000014  -0.000001
  308  C  8  Z   -0.000189  -0.000176  -0.000426   0.000005   0.000005
  309  C  8 XX    0.000009   0.000043   0.000004  -0.000000  -0.000000
  310  C  8 YY    0.000009   0.000043   0.000004   0.000000   0.000001
  311  C  8 ZZ   -0.000019  -0.000086  -0.000008  -0.000000  -0.000001
  312  C  8 XY   -0.000000  -0.000000  -0.000000   0.000000   0.000000
  313  C  8 XZ    0.000000  -0.000000   0.000000  -0.000000  -0.000010
  314  C  8 YZ    0.000000  -0.000000   0.000000  -0.000005   0.000001
  315  C  8 XX   -0.000025  -0.000095  -0.000165  -0.000001  -0.000004
  316  C  8 YY   -0.000025  -0.000095  -0.000165  -0.000001  -0.000004
  317  C  8 ZZ    0.000050   0.000190   0.000330   0.000001   0.000008
  318  C  8 XY    0.000000   0.000001   0.000000   0.000001  -0.000000
  319  C  8 XZ    0.000000   0.000004  -0.000004  -0.000002  -0.000024
  320  C  8 YZ    0.000000   0.000001  -0.000000  -0.000033   0.000002
  321  C  8 XXX   0.000000   0.000002   0.000002  -0.000000  -0.000010
  322  C  8 YYY   0.000000  -0.000000   0.000000  -0.000003   0.000001
  323  C  8 ZZZ   0.000038   0.000158   0.000030   0.000000   0.000003
  324  C  8 XXY   0.000000  -0.000000   0.000000  -0.000001   0.000000
  325  C  8 XXZ  -0.000026  -0.000108  -0.000022  -0.000001  -0.000012
  326  C  8 YYX   0.000000  -0.000001   0.000000  -0.000000  -0.000005
  327  C  8 YYZ  -0.000026  -0.000104  -0.000018   0.000000   0.000008
  328  C  8 ZZX  -0.000001  -0.000001  -0.000003   0.000000   0.000019
  329  C  8 ZZY  -0.000000   0.000000  -0.000000   0.000006  -0.000001
  330  C  8 XYZ  -0.000000   0.000000   0.000000   0.000009  -0.000001
  331  C  9  S   -0.000007  -0.000027   0.000037  -0.000000  -0.000001
  332  C  9  S   -0.000062  -0.000269   0.000251  -0.000002  -0.000010
  333  C  9  S    0.000092   0.000273  -0.000804   0.000003   0.000014
  334  C  9  S   -0.000033   0.000148   0.000190   0.000001   0.000015
  335  C  9  X    0.000000   0.000000  -0.000001   0.000000   0.000001
  336  C  9  Y   -0.000000   0.000000  -0.000000   0.000003  -0.000000
  337  C  9  Z    0.000006   0.000040  -0.000020   0.000000   0.000002
  338  C  9  X   -0.000000   0.000000   0.000004  -0.000000  -0.000001
  339  C  9  Y    0.000000   0.000000   0.000000  -0.000008   0.000000
  340  C  9  Z   -0.000026  -0.000308   0.000073  -0.000001  -0.000011
  341  C  9  X   -0.000000  -0.000002   0.000003   0.000001   0.000017
  342  C  9  Y    0.000000   0.000002   0.000000   0.000015  -0.000001
  343  C  9  Z    0.000201   0.000203  -0.000425   0.000001  -0.000018
  344  C  9 XX    0.000009   0.000043  -0.000004   0.000000  -0.000000
  345  C  9 YY    0.000009   0.000042  -0.000004   0.000000   0.000001
  346  C  9 ZZ   -0.000019  -0.000086   0.000008  -0.000000  -0.000001
  347  C  9 XY    0.000000   0.000000  -0.000000   0.000001  -0.000000
  348  C  9 XZ   -0.000000   0.000000   0.000000   0.000000   0.000010
  349  C  9 YZ    0.000000   0.000000   0.000000   0.000005  -0.000001
  350  C  9 XX   -0.000027  -0.000099   0.000165  -0.000001  -0.000005
  351  C  9 YY   -0.000026  -0.000098   0.000165  -0.000001  -0.000004
  352  C  9 ZZ    0.000053   0.000197  -0.000331   0.000002   0.000009
  353  C  9 XY   -0.000000  -0.000000   0.000000   0.000001   0.000000
  354  C  9 XZ   -0.000000  -0.000004  -0.000003   0.000002   0.000024
  355  C  9 YZ   -0.000000  -0.000000  -0.000001   0.000033  -0.000002
  356  C  9 XXX   0.000000   0.000001  -0.000002  -0.000000  -0.000011
  357  C  9 YYY  -0.000000  -0.000000  -0.000000  -0.000003   0.000001
  358  C  9 ZZZ  -0.000039  -0.000160   0.000030  -0.000001  -0.000003
  359  C  9 XXY  -0.000000  -0.000000  -0.000000  -0.000001   0.000000
  360  C  9 XXZ   0.000026   0.000109  -0.000022   0.000001   0.000012
  361  C  9 YYX   0.000000  -0.000001  -0.000000  -0.000000  -0.000005
  362  C  9 YYZ   0.000026   0.000105  -0.000018  -0.000000  -0.000008
  363  C  9 ZZX  -0.000000   0.000000   0.000002   0.000000   0.000019
  364  C  9 ZZY   0.000000   0.000000   0.000000   0.000006  -0.000001
  365  C  9 XYZ  -0.000000  -0.000000   0.000000  -0.000009   0.000001
  366  O 10  S   -0.000000  -0.000003   0.000002  -0.000000  -0.000000
  367  O 10  S    0.000007   0.000022   0.000018   0.000000   0.000001
  368  O 10  S    0.000032   0.000186  -0.000194  -0.000000   0.000003
  369  O 10  S   -0.000204  -0.000322  -0.000539   0.000002  -0.000004
  370  O 10  X   -0.000000  -0.000002  -0.000000   0.000000   0.000004
  371  O 10  Y    0.000000  -0.000000   0.000000   0.000003  -0.000000
  372  O 10  Z   -0.000000  -0.000009   0.000003   0.000000   0.000000
  373  O 10  X    0.000001   0.000003   0.000000  -0.000001  -0.000017
  374  O 10  Y   -0.000000  -0.000000  -0.000000  -0.000010   0.000001
  375  O 10  Z    0.000027   0.000161  -0.000010   0.000000   0.000004
  376  O 10  X   -0.000001  -0.000000  -0.000004  -0.000001  -0.000018
  377  O 10  Y    0.000000   0.000001   0.000000  -0.000019   0.000001
  378  O 10  Z   -0.000044  -0.000041  -0.000177   0.000001  -0.000000
  379  O 10 XX   -0.000003  -0.000011  -0.000001   0.000000   0.000000
  380  O 10 YY   -0.000003  -0.000011  -0.000001  -0.000000  -0.000001
  381  O 10 ZZ    0.000005   0.000022   0.000002   0.000000   0.000000
  382  O 10 XY    0.000000   0.000000  -0.000000  -0.000000   0.000000
  383  O 10 XZ    0.000000   0.000000   0.000001   0.000000   0.000000
  384  O 10 YZ   -0.000000  -0.000000  -0.000000   0.000002  -0.000000
  385  O 10 XX   -0.000007  -0.000040  -0.000012  -0.000000  -0.000004
  386  O 10 YY   -0.000007  -0.000039  -0.000010  -0.000000   0.000002
  387  O 10 ZZ    0.000013   0.000079   0.000021   0.000000   0.000002
  388  O 10 XY   -0.000000   0.000000   0.000000   0.000002  -0.000000
  389  O 10 XZ    0.000001   0.000004   0.000000  -0.000001  -0.000017
  390  O 10 YZ    0.000000   0.000000   0.000000  -0.000013   0.000001
  391  O 10 XXX  -0.000000  -0.000001  -0.000001   0.000000   0.000003
  392  O 10 YYY  -0.000000   0.000000  -0.000000   0.000001  -0.000000
  393  O 10 ZZZ   0.000009   0.000036   0.000012   0.000000   0.000001
  394  O 10 XXY  -0.000000   0.000000  -0.000000   0.000001  -0.000000
  395  O 10 XXZ  -0.000006  -0.000025  -0.000008  -0.000000  -0.000003
  396  O 10 YYX  -0.000000  -0.000000  -0.000000   0.000000   0.000001
  397  O 10 YYZ  -0.000006  -0.000024  -0.000007   0.000000   0.000002
[...]

 ---------------------------------------
          - DIABATIC STATES -           
 ---------------------------------------

 State #    1  Energy =   -1836.888818292

      Det      Coef        Coefp    Occupancy (Ignoring core)
      ---      ----        ----    --------- --------- -----
        4    0.707105   -0.707105  2+-
        2   -0.707105   -0.707105  2-+

 State #    2  Energy =   -1836.888900402

      Det      Coef        Coefp    Occupancy (Ignoring core)
      ---      ----        ----    --------- --------- -----
        5    0.757939   -0.757939  202
        1   -0.652248    0.652248  220

 State #    3  Energy =   -1836.878502587

      Det      Coef        Coefp    Occupancy (Ignoring core)
      ---      ----        ----    --------- --------- -----
        1    0.731016   -0.731016  220
        5    0.625457   -0.625457  202
        9   -0.272799    0.272799  022

 State #    4  Energy =   -1836.831950718

      Det      Coef        Coefp    Occupancy (Ignoring core)
      ---      ----        ----    --------- --------- -----
        3   -0.707107    0.707107  -2+
        7    0.707107    0.707107  +2-

 State #    5  Energy =   -1836.833611084

      Det      Coef        Coefp    Occupancy (Ignoring core)
      ---      ----        ----    --------- --------- -----
        6   -0.707105   -0.707105  -+2
        8    0.707105   -0.707105  +-2

 ---------------------------------------
      - DIABATIC STATES IN CMO -        
 ---------------------------------------

 State #    1  Energy =   -1836.888818292

      Det      Coef        Coefp    Occupancy (Ignoring core)
      ---      ----        ----    --------- --------- -----
        4    0.697179   -0.697179  2+-
        2   -0.697179   -0.697179  2-+
        5    0.118469   -0.118469  202
        1   -0.117638    0.117638  220

 State #    2  Energy =   -1836.888900402

      Det      Coef        Coefp    Occupancy (Ignoring core)
      ---      ----        ----    --------- --------- -----
        5    0.748037   -0.748037  202
        1   -0.642349    0.642349  220
        2    0.117732    0.117732  2-+
        4   -0.117732    0.117732  2+-

 State #    3  Energy =   -1836.878502587

      Det      Coef        Coefp    Occupancy (Ignoring core)
      ---      ----        ----    --------- --------- -----
        1    0.730266   -0.730266  220
        5    0.626204   -0.626204  202
        9   -0.272795    0.272795  022

 State #    4  Energy =   -1836.831950718

      Det      Coef        Coefp    Occupancy (Ignoring core)
      ---      ----        ----    --------- --------- -----
        3   -0.704619    0.704619  -2+
        7    0.704619    0.704619  +2-
        6    0.059247    0.059247  -+2
        8   -0.059247    0.059247  +-2

 State #    5  Energy =   -1836.833611084

      Det      Coef        Coefp    Occupancy (Ignoring core)
      ---      ----        ----    --------- --------- -----
        6   -0.704616   -0.704616  -+2
        8    0.704616   -0.704616  +-2
        7    0.059246    0.059246  +2-
        3   -0.059246    0.059246  -2+

 ---------------------------------------
    -DIABATIC STATES IN PROTOTYPES-     
 ---------------------------------------

     STATE:    1
 Group Ref#    Coefficients
     1    1    0.999997
     2    2    0.000012
     3    3    0.000076
     4    4   -0.000000
     5    5   -0.000003

WEIGHT OF LISTED PROTOTYPES:  100.00%

     STATE:    2
 Group Ref#    Coefficients
     1    1    0.000012
     2    2    0.999951
     3    3   -0.000311
     4    4    0.000000
     5    5    0.000012

WEIGHT OF LISTED PROTOTYPES:   99.99%

     STATE:    3
 Group Ref#    Coefficients
     1    1    0.000076
     2    2   -0.000312
     3    3    0.998035
     4    4    0.000002
     5    5    0.000075

WEIGHT OF LISTED PROTOTYPES:   99.61%

     STATE:    4
 Group Ref#    Coefficients
     1    1   -0.000000
     2    2    0.000000
     3    3    0.000002
     4    4    1.000000
     5    5   -0.000000

WEIGHT OF LISTED PROTOTYPES:  100.00%

     STATE:    5
 Group Ref#    Coefficients
     1    1   -0.000003
     2    2    0.000012
     3    3    0.000074
     4    4   -0.000000
     5    5    0.999997

WEIGHT OF LISTED PROTOTYPES:  100.00%

     DIRECT MAX. DIABATIZATION FINISHED    
 CPU     0: STEP CPU TIME=     1.77 TOTAL CPU TIME=      14083.9 (    234.7 MIN)
 TOTAL WALL CLOCK TIME=      14300.5 SECONDS, CPU UTILIZATION IS    98.49%

DIABATS FOR SPIN-ORBIT CALCULATION ARE READY

TRANSITION DIPOLES BETWEEN ADIABATS (in A.U.):

STATE PAIR      X         Y         Z
    1    1 -0.041995 -0.023306  0.004404
    2    1 -0.004966 -0.019943  0.000003
    2    2 -0.085160 -0.013763  0.004418
    3    1 -0.283222  0.083514  0.000094
    3    2  0.088427  0.262728  0.000245
    3    3 -0.119507  0.004697  0.004309
    4    1 -0.000209  0.000212  0.036400
    4    2 -0.000003 -0.000269  0.108303
    4    3  0.000074 -0.000198 -0.004917
    4    4  0.097732 -0.023839  0.003837
    5    1 -0.000081 -0.000259  0.101375
    5    2  0.000194 -0.000120 -0.035917
    5    3  0.000002 -0.000228  0.072357
    5    4  0.016399  0.142870  0.000094
    5    5 -0.211781  0.009458  0.003806


TRANSITION DIPOLES BETWEEN DIABATS (in A.U.):

STATE PAIR      X         Y         Z
    1    1 -0.084177 -0.011179  0.004335
    2    1  0.000312 -0.021500  0.000018
    2    2 -0.037786 -0.011045  0.004348
    3    1  0.001636 -0.275929  0.000240
    3    2  0.296095 -0.001285  0.000091
    3    3 -0.124703 -0.010144  0.004260
    4    1 -0.000485  0.000189  0.008210
    4    2  0.000161 -0.000086 -0.106544
    4    3 -0.000110  0.000071  0.073713
    4    4 -0.212643 -0.006508  0.003909
    5    1  0.000169 -0.000260 -0.113780
    5    2  0.000691 -0.000206 -0.008210
    5    3  0.000198 -0.000100 -0.003879
    5    4 -0.000884  0.143835  0.000310
    5    5  0.098599 -0.007876  0.003923

TRANSITION DIPOLES BETWEEN DIRECT MAX. DIABATS (in A.U.):

STATE PAIR      X         Y         Z
    1    1 -0.084177 -0.011179  0.004335
    2    1  0.000312 -0.021500  0.000018
    2    2 -0.037786 -0.011045  0.004348
    3    1  0.001636 -0.275929  0.000240
    3    2  0.296095 -0.001285  0.000091
    3    3 -0.124703 -0.010144  0.004260
    4    1 -0.000485  0.000189  0.008210
    4    2  0.000161 -0.000086 -0.106544
    4    3 -0.000110  0.000071  0.073713
    4    4 -0.212643 -0.006508  0.003909
    5    1  0.000169 -0.000260 -0.113780
    5    2  0.000691 -0.000206 -0.008210
    5    3  0.000198 -0.000100 -0.003879
    5    4 -0.000884  0.143835  0.000310
    5    5  0.098599 -0.007876  0.003923
 No $TRANST Group Found.
 Quit without doing spin-orbit coupling
 ..... DONE WITH MP2 ENERGY .....
 CPU     0: STEP CPU TIME=     0.03 TOTAL CPU TIME=      14084.0 (    234.7 MIN)
 TOTAL WALL CLOCK TIME=      14300.6 SECONDS, CPU UTILIZATION IS    98.49%

   1 warning(s) detected.
     A line exceeding 80 characters begins with " ! TURN ON THIS SECT".
 There may be a problem in your input file.

            300000000  WORDS OF DYNAMIC MEMORY USED
 EXECUTION OF GAMESS TERMINATED NORMALLY Sun Mar 17 21:15:06 2024
 DDI: 943067544 bytes (899.4 MB / 112 MWords) used by master data server.

 ----------------------------------------
 CPU timing information for all processes
 ========================================
 0: 14068.771 + 15.264 = 14084.35
 1: 13757.185 + 16.352 = 13773.538
 2: 14040.858 + 16.625 = 14057.483
 ----------------------------------------
Note: The following floating-point exceptions are signalling: IEEE_DENORMAL
Note: The following floating-point exceptions are signalling: IEEE_DENORMAL
Note: The following floating-point exceptions are signalling: IEEE_DENORMAL
 ddikick.x: exited gracefully.
unset echo
----- accounting info -----
Files used on the master node io003 were:
-rwxr-xr-x 1 bjb2chen nooijen   2626003 Mar 17 17:16 /home/bjb2chen/gmsscr//FeCO_SPK_gmcpt_C1_5st_diab_0.3_+x1q27.F05*
-rw-r--r-- 1 bjb2chen nooijen 434680352 Mar 17 21:12 /home/bjb2chen/gmsscr//FeCO_SPK_gmcpt_C1_5st_diab_0.3_+x1q27.F09
-rw-r--r-- 1 bjb2chen nooijen 234735648 Mar 17 21:13 /home/bjb2chen/gmsscr//FeCO_SPK_gmcpt_C1_5st_diab_0.3_+x1q27.F09.001
-rw-r--r-- 1 bjb2chen nooijen 450750048 Mar 17 21:12 /home/bjb2chen/gmsscr//FeCO_SPK_gmcpt_C1_5st_diab_0.3_+x1q27.F09.002
-rw-r--r-- 1 bjb2chen nooijen  32163760 Mar 17 21:15 /home/bjb2chen/gmsscr//FeCO_SPK_gmcpt_C1_5st_diab_0.3_+x1q27.F10
-rw-r--r-- 1 bjb2chen nooijen   4896120 Mar 17 21:15 /home/bjb2chen/gmsscr//FeCO_SPK_gmcpt_C1_5st_diab_0.3_+x1q27.F13
-rw-r--r-- 1 bjb2chen nooijen   4896120 Mar 17 21:15 /home/bjb2chen/gmsscr//FeCO_SPK_gmcpt_C1_5st_diab_0.3_+x1q27.F13.001
-rw-r--r-- 1 bjb2chen nooijen   4896120 Mar 17 21:15 /home/bjb2chen/gmsscr//FeCO_SPK_gmcpt_C1_5st_diab_0.3_+x1q27.F13.002
-rw-r--r-- 1 bjb2chen nooijen    249432 Mar 17 21:15 /home/bjb2chen/gmsscr//FeCO_SPK_gmcpt_C1_5st_diab_0.3_+x1q27.F15
-rw-r--r-- 1 bjb2chen nooijen         0 Mar 17 17:16 /home/bjb2chen/gmsscr//FeCO_SPK_gmcpt_C1_5st_diab_0.3_+x1q27.F16
-rw-r--r-- 1 bjb2chen nooijen        80 Mar 17 21:12 /home/bjb2chen/gmsscr//FeCO_SPK_gmcpt_C1_5st_diab_0.3_+x1q27.F70
-rw-r--r-- 1 bjb2chen nooijen        80 Mar 17 21:12 /home/bjb2chen/gmsscr//FeCO_SPK_gmcpt_C1_5st_diab_0.3_+x1q27.F70.001
-rw-r--r-- 1 bjb2chen nooijen        80 Mar 17 21:12 /home/bjb2chen/gmsscr//FeCO_SPK_gmcpt_C1_5st_diab_0.3_+x1q27.F70.002
-rw-r--r-- 1 bjb2chen nooijen        80 Mar 17 21:12 /home/bjb2chen/gmsscr//FeCO_SPK_gmcpt_C1_5st_diab_0.3_+x1q27.F71
-rw-r--r-- 1 bjb2chen nooijen        80 Mar 17 21:12 /home/bjb2chen/gmsscr//FeCO_SPK_gmcpt_C1_5st_diab_0.3_+x1q27.F71.001
-rw-r--r-- 1 bjb2chen nooijen        80 Mar 17 21:12 /home/bjb2chen/gmsscr//FeCO_SPK_gmcpt_C1_5st_diab_0.3_+x1q27.F71.002
-rw-r--r-- 1 bjb2chen nooijen       152 Mar 17 21:12 /home/bjb2chen/gmsscr//FeCO_SPK_gmcpt_C1_5st_diab_0.3_+x1q27.F72
-rw-r--r-- 1 bjb2chen nooijen       152 Mar 17 21:12 /home/bjb2chen/gmsscr//FeCO_SPK_gmcpt_C1_5st_diab_0.3_+x1q27.F72.001
-rw-r--r-- 1 bjb2chen nooijen       152 Mar 17 21:12 /home/bjb2chen/gmsscr//FeCO_SPK_gmcpt_C1_5st_diab_0.3_+x1q27.F72.002
-rw-r--r-- 1 bjb2chen nooijen       152 Mar 17 21:12 /home/bjb2chen/gmsscr//FeCO_SPK_gmcpt_C1_5st_diab_0.3_+x1q27.F73
-rw-r--r-- 1 bjb2chen nooijen       152 Mar 17 21:12 /home/bjb2chen/gmsscr//FeCO_SPK_gmcpt_C1_5st_diab_0.3_+x1q27.F73.001
-rw-r--r-- 1 bjb2chen nooijen       152 Mar 17 21:12 /home/bjb2chen/gmsscr//FeCO_SPK_gmcpt_C1_5st_diab_0.3_+x1q27.F73.002
-rw-r--r-- 1 bjb2chen nooijen      1416 Mar 17 21:13 /home/bjb2chen/gmsscr//FeCO_SPK_gmcpt_C1_5st_diab_0.3_+x1q27.F74
-rw-r--r-- 1 bjb2chen nooijen      1416 Mar 17 21:14 /home/bjb2chen/gmsscr//FeCO_SPK_gmcpt_C1_5st_diab_0.3_+x1q27.F74.001
-rw-r--r-- 1 bjb2chen nooijen      1416 Mar 17 21:13 /home/bjb2chen/gmsscr//FeCO_SPK_gmcpt_C1_5st_diab_0.3_+x1q27.F74.002
-rw-r--r-- 1 bjb2chen nooijen       672 Mar 17 21:14 /home/bjb2chen/gmsscr//FeCO_SPK_gmcpt_C1_5st_diab_0.3_+x1q27.F75
-rw-r--r-- 1 bjb2chen nooijen       672 Mar 17 21:14 /home/bjb2chen/gmsscr//FeCO_SPK_gmcpt_C1_5st_diab_0.3_+x1q27.F75.001
-rw-r--r-- 1 bjb2chen nooijen       672 Mar 17 21:14 /home/bjb2chen/gmsscr//FeCO_SPK_gmcpt_C1_5st_diab_0.3_+x1q27.F75.002
-rw-r--r-- 1 bjb2chen nooijen       784 Mar 17 21:14 /home/bjb2chen/gmsscr//FeCO_SPK_gmcpt_C1_5st_diab_0.3_+x1q27.F76
-rw-r--r-- 1 bjb2chen nooijen       784 Mar 17 21:14 /home/bjb2chen/gmsscr//FeCO_SPK_gmcpt_C1_5st_diab_0.3_+x1q27.F76.001
-rw-r--r-- 1 bjb2chen nooijen       784 Mar 17 21:14 /home/bjb2chen/gmsscr//FeCO_SPK_gmcpt_C1_5st_diab_0.3_+x1q27.F76.002
-rw-r--r-- 1 bjb2chen nooijen         0 Mar 17 17:16 /home/bjb2chen/gmsscr//FeCO_SPK_gmcpt_C1_5st_diab_0.3_+x1q27.F77
-rw-r--r-- 1 bjb2chen nooijen         0 Mar 17 17:16 /home/bjb2chen/gmsscr//FeCO_SPK_gmcpt_C1_5st_diab_0.3_+x1q27.F77.001
-rw-r--r-- 1 bjb2chen nooijen         0 Mar 17 17:16 /home/bjb2chen/gmsscr//FeCO_SPK_gmcpt_C1_5st_diab_0.3_+x1q27.F77.002
-rw-r--r-- 1 bjb2chen nooijen     33608 Mar 17 21:14 /home/bjb2chen/gmsscr//FeCO_SPK_gmcpt_C1_5st_diab_0.3_+x1q27.F78
-rw-r--r-- 1 bjb2chen nooijen     33608 Mar 17 21:14 /home/bjb2chen/gmsscr//FeCO_SPK_gmcpt_C1_5st_diab_0.3_+x1q27.F78.001
-rw-r--r-- 1 bjb2chen nooijen     33608 Mar 17 21:14 /home/bjb2chen/gmsscr//FeCO_SPK_gmcpt_C1_5st_diab_0.3_+x1q27.F78.002
-rw-r--r-- 1 bjb2chen nooijen       440 Mar 17 21:14 /home/bjb2chen/gmsscr//FeCO_SPK_gmcpt_C1_5st_diab_0.3_+x1q27.F79
-rw-r--r-- 1 bjb2chen nooijen       440 Mar 17 21:14 /home/bjb2chen/gmsscr//FeCO_SPK_gmcpt_C1_5st_diab_0.3_+x1q27.F79.001
-rw-r--r-- 1 bjb2chen nooijen       440 Mar 17 21:14 /home/bjb2chen/gmsscr//FeCO_SPK_gmcpt_C1_5st_diab_0.3_+x1q27.F79.002
-rw-r--r-- 1 bjb2chen nooijen       248 Mar 17 21:14 /home/bjb2chen/gmsscr//FeCO_SPK_gmcpt_C1_5st_diab_0.3_+x1q27.F80
-rw-r--r-- 1 bjb2chen nooijen       248 Mar 17 21:13 /home/bjb2chen/gmsscr//FeCO_SPK_gmcpt_C1_5st_diab_0.3_+x1q27.F80.001
-rw-r--r-- 1 bjb2chen nooijen       248 Mar 17 21:13 /home/bjb2chen/gmsscr//FeCO_SPK_gmcpt_C1_5st_diab_0.3_+x1q27.F80.002
-rw-r--r-- 1 bjb2chen nooijen   1960016 Mar 17 21:13 /home/bjb2chen/gmsscr//FeCO_SPK_gmcpt_C1_5st_diab_0.3_+x1q27.F81
-rw-r--r-- 1 bjb2chen nooijen   1960016 Mar 17 21:14 /home/bjb2chen/gmsscr//FeCO_SPK_gmcpt_C1_5st_diab_0.3_+x1q27.F81.001
-rw-r--r-- 1 bjb2chen nooijen   1960016 Mar 17 21:13 /home/bjb2chen/gmsscr//FeCO_SPK_gmcpt_C1_5st_diab_0.3_+x1q27.F81.002
-rw-r--r-- 1 bjb2chen nooijen      5416 Mar 17 21:13 /home/bjb2chen/gmsscr//FeCO_SPK_gmcpt_C1_5st_diab_0.3_+x1q27.F82
-rw-r--r-- 1 bjb2chen nooijen      5416 Mar 17 21:14 /home/bjb2chen/gmsscr//FeCO_SPK_gmcpt_C1_5st_diab_0.3_+x1q27.F82.001
-rw-r--r-- 1 bjb2chen nooijen      5416 Mar 17 21:13 /home/bjb2chen/gmsscr//FeCO_SPK_gmcpt_C1_5st_diab_0.3_+x1q27.F82.002
-rw-r--r-- 1 bjb2chen nooijen       656 Mar 17 21:13 /home/bjb2chen/gmsscr//FeCO_SPK_gmcpt_C1_5st_diab_0.3_+x1q27.F83
-rw-r--r-- 1 bjb2chen nooijen       656 Mar 17 21:14 /home/bjb2chen/gmsscr//FeCO_SPK_gmcpt_C1_5st_diab_0.3_+x1q27.F83.001
-rw-r--r-- 1 bjb2chen nooijen       656 Mar 17 21:13 /home/bjb2chen/gmsscr//FeCO_SPK_gmcpt_C1_5st_diab_0.3_+x1q27.F83.002
-rw-r--r-- 1 bjb2chen nooijen   4709616 Mar 17 21:13 /home/bjb2chen/gmsscr//FeCO_SPK_gmcpt_C1_5st_diab_0.3_+x1q27.F84
-rw-r--r-- 1 bjb2chen nooijen   4709616 Mar 17 21:14 /home/bjb2chen/gmsscr//FeCO_SPK_gmcpt_C1_5st_diab_0.3_+x1q27.F84.001
-rw-r--r-- 1 bjb2chen nooijen   4709616 Mar 17 21:13 /home/bjb2chen/gmsscr//FeCO_SPK_gmcpt_C1_5st_diab_0.3_+x1q27.F84.002
-rw-r--r-- 1 bjb2chen nooijen  26156776 Mar 17 21:14 /home/bjb2chen/gmsscr//FeCO_SPK_gmcpt_C1_5st_diab_0.3_+x1q27.F85
-rw-r--r-- 1 bjb2chen nooijen  26156776 Mar 17 21:14 /home/bjb2chen/gmsscr//FeCO_SPK_gmcpt_C1_5st_diab_0.3_+x1q27.F85.001
-rw-r--r-- 1 bjb2chen nooijen  26156776 Mar 17 21:14 /home/bjb2chen/gmsscr//FeCO_SPK_gmcpt_C1_5st_diab_0.3_+x1q27.F85.002
-rw-r--r-- 1 bjb2chen nooijen 924311384 Mar 17 21:14 /home/bjb2chen/gmsscr//FeCO_SPK_gmcpt_C1_5st_diab_0.3_+x1q27.F86
-rw-r--r-- 1 bjb2chen nooijen 924310744 Mar 17 21:14 /home/bjb2chen/gmsscr//FeCO_SPK_gmcpt_C1_5st_diab_0.3_+x1q27.F86.001
-rw-r--r-- 1 bjb2chen nooijen 924288056 Mar 17 21:14 /home/bjb2chen/gmsscr//FeCO_SPK_gmcpt_C1_5st_diab_0.3_+x1q27.F86.002
-rw-r--r-- 1 bjb2chen nooijen      1808 Mar 17 21:15 /home/bjb2chen/gmsscr//FeCO_SPK_gmcpt_C1_5st_diab_0.3_+x1q27.F87
-rw-r--r-- 1 bjb2chen nooijen      1808 Mar 17 21:15 /home/bjb2chen/gmsscr//FeCO_SPK_gmcpt_C1_5st_diab_0.3_+x1q27.F87.001
-rw-r--r-- 1 bjb2chen nooijen      1808 Mar 17 21:15 /home/bjb2chen/gmsscr//FeCO_SPK_gmcpt_C1_5st_diab_0.3_+x1q27.F87.002
-rw-r--r-- 1 bjb2chen nooijen       784 Mar 17 21:15 /home/bjb2chen/gmsscr//FeCO_SPK_gmcpt_C1_5st_diab_0.3_+x1q27.F88
-rw-r--r-- 1 bjb2chen nooijen       784 Mar 17 21:15 /home/bjb2chen/gmsscr//FeCO_SPK_gmcpt_C1_5st_diab_0.3_+x1q27.F88.001
-rw-r--r-- 1 bjb2chen nooijen       784 Mar 17 21:15 /home/bjb2chen/gmsscr//FeCO_SPK_gmcpt_C1_5st_diab_0.3_+x1q27.F88.002
-rw-r--r-- 1 bjb2chen nooijen      2808 Mar 17 21:14 /home/bjb2chen/gmsscr//FeCO_SPK_gmcpt_C1_5st_diab_0.3_+x1q27.F89
-rw-r--r-- 1 bjb2chen nooijen      2808 Mar 17 21:14 /home/bjb2chen/gmsscr//FeCO_SPK_gmcpt_C1_5st_diab_0.3_+x1q27.F89.001
-rw-r--r-- 1 bjb2chen nooijen      2808 Mar 17 21:14 /home/bjb2chen/gmsscr//FeCO_SPK_gmcpt_C1_5st_diab_0.3_+x1q27.F89.002
-rw-r--r-- 1 bjb2chen nooijen         0 Mar 17 17:16 /home/bjb2chen/gmsscr//FeCO_SPK_gmcpt_C1_5st_diab_0.3_+x1q27.F90
-rw-r--r-- 1 bjb2chen nooijen         0 Mar 17 17:16 /home/bjb2chen/gmsscr//FeCO_SPK_gmcpt_C1_5st_diab_0.3_+x1q27.F90.001
-rw-r--r-- 1 bjb2chen nooijen         0 Mar 17 17:16 /home/bjb2chen/gmsscr//FeCO_SPK_gmcpt_C1_5st_diab_0.3_+x1q27.F90.002
-rw-r--r-- 1 bjb2chen nooijen       160 Mar 17 21:15 /home/bjb2chen/gmsscr//FeCO_SPK_gmcpt_C1_5st_diab_0.3_+x1q27.F91
-rw-r--r-- 1 bjb2chen nooijen       160 Mar 17 21:15 /home/bjb2chen/gmsscr//FeCO_SPK_gmcpt_C1_5st_diab_0.3_+x1q27.F91.001
-rw-r--r-- 1 bjb2chen nooijen       160 Mar 17 21:15 /home/bjb2chen/gmsscr//FeCO_SPK_gmcpt_C1_5st_diab_0.3_+x1q27.F91.002
-rw-r--r-- 1 bjb2chen nooijen       200 Mar 17 21:14 /home/bjb2chen/gmsscr//FeCO_SPK_gmcpt_C1_5st_diab_0.3_+x1q27.F92
-rw-r--r-- 1 bjb2chen nooijen       200 Mar 17 21:14 /home/bjb2chen/gmsscr//FeCO_SPK_gmcpt_C1_5st_diab_0.3_+x1q27.F92.001
-rw-r--r-- 1 bjb2chen nooijen       200 Mar 17 21:14 /home/bjb2chen/gmsscr//FeCO_SPK_gmcpt_C1_5st_diab_0.3_+x1q27.F92.002
-rw-r--r-- 1 bjb2chen nooijen       160 Mar 17 21:14 /home/bjb2chen/gmsscr//FeCO_SPK_gmcpt_C1_5st_diab_0.3_+x1q27.F93
-rw-r--r-- 1 bjb2chen nooijen       160 Mar 17 21:14 /home/bjb2chen/gmsscr//FeCO_SPK_gmcpt_C1_5st_diab_0.3_+x1q27.F93.001
-rw-r--r-- 1 bjb2chen nooijen       160 Mar 17 21:14 /home/bjb2chen/gmsscr//FeCO_SPK_gmcpt_C1_5st_diab_0.3_+x1q27.F93.002
-rw-r--r-- 1 bjb2chen nooijen        88 Mar 17 21:14 /home/bjb2chen/gmsscr//FeCO_SPK_gmcpt_C1_5st_diab_0.3_+x1q27.F94
-rw-r--r-- 1 bjb2chen nooijen        88 Mar 17 21:14 /home/bjb2chen/gmsscr//FeCO_SPK_gmcpt_C1_5st_diab_0.3_+x1q27.F94.001
-rw-r--r-- 1 bjb2chen nooijen        88 Mar 17 21:14 /home/bjb2chen/gmsscr//FeCO_SPK_gmcpt_C1_5st_diab_0.3_+x1q27.F94.002
-rw-r--r-- 1 bjb2chen nooijen        48 Mar 17 21:14 /home/bjb2chen/gmsscr//FeCO_SPK_gmcpt_C1_5st_diab_0.3_+x1q27.F95
-rw-r--r-- 1 bjb2chen nooijen        48 Mar 17 21:14 /home/bjb2chen/gmsscr//FeCO_SPK_gmcpt_C1_5st_diab_0.3_+x1q27.F95.001
-rw-r--r-- 1 bjb2chen nooijen        48 Mar 17 21:14 /home/bjb2chen/gmsscr//FeCO_SPK_gmcpt_C1_5st_diab_0.3_+x1q27.F95.002
-rw-r--r-- 1 bjb2chen nooijen       416 Mar 17 21:15 /home/bjb2chen/gmsscr//FeCO_SPK_gmcpt_C1_5st_diab_0.3_+x1q27.F96
-rw-r--r-- 1 bjb2chen nooijen       416 Mar 17 21:15 /home/bjb2chen/gmsscr//FeCO_SPK_gmcpt_C1_5st_diab_0.3_+x1q27.F96.001
-rw-r--r-- 1 bjb2chen nooijen       416 Mar 17 21:15 /home/bjb2chen/gmsscr//FeCO_SPK_gmcpt_C1_5st_diab_0.3_+x1q27.F96.002
-rw-r--r-- 1 bjb2chen nooijen       224 Mar 17 21:14 /home/bjb2chen/gmsscr//FeCO_SPK_gmcpt_C1_5st_diab_0.3_+x1q27.F97
-rw-r--r-- 1 bjb2chen nooijen       224 Mar 17 21:14 /home/bjb2chen/gmsscr//FeCO_SPK_gmcpt_C1_5st_diab_0.3_+x1q27.F97.001
-rw-r--r-- 1 bjb2chen nooijen       224 Mar 17 21:14 /home/bjb2chen/gmsscr//FeCO_SPK_gmcpt_C1_5st_diab_0.3_+x1q27.F97.002
-rw-r--r-- 1 bjb2chen nooijen        80 Mar 17 21:12 /home/bjb2chen/gmsscr//FeCO_SPK_gmcpt_C1_5st_diab_0.3_+x1q27.F98
-rw-r--r-- 1 bjb2chen nooijen        80 Mar 17 21:12 /home/bjb2chen/gmsscr//FeCO_SPK_gmcpt_C1_5st_diab_0.3_+x1q27.F98.001
-rw-r--r-- 1 bjb2chen nooijen        80 Mar 17 21:12 /home/bjb2chen/gmsscr//FeCO_SPK_gmcpt_C1_5st_diab_0.3_+x1q27.F98.002
-rw-r--r-- 1 bjb2chen nooijen       192 Mar 17 21:14 /home/bjb2chen/gmsscr//FeCO_SPK_gmcpt_C1_5st_diab_0.3_+x1q27.F99
-rw-r--r-- 1 bjb2chen nooijen       192 Mar 17 21:14 /home/bjb2chen/gmsscr//FeCO_SPK_gmcpt_C1_5st_diab_0.3_+x1q27.F99.001
-rw-r--r-- 1 bjb2chen nooijen       192 Mar 17 21:14 /home/bjb2chen/gmsscr//FeCO_SPK_gmcpt_C1_5st_diab_0.3_+x1q27.F99.002
ls: No match.
ls: No match.
ls: No match.
Sun 17 Mar 2024 09:15:11 PM EDT
0.346u 0.202s 3:58:25.80 0.0%	0+0k 5136+5352io 0pf+0w
