----- GAMESS execution script 'rungms' -----
This job is running on host io003
under operating system Linux at Fri 15 Mar 2024 11:48:11 AM EDT
Available scratch disk space (Kbyte units) at beginning of the job is
Filesystem             1K-blocks       Used Available Use% Mounted on
helmholtz.nlogn:/home 6391504896 5369138176 700227584  89% /home
GAMESS temporary binary files will be written to /home/bjb2chen/gmsscr/
GAMESS supplementary output files will be written to /home/bjb2chen/gamess/vibronics/template_examples/Fe_pentaCO
Copying input file FeCO_SPK_rohf_D3h_mp2_TZmult4_diis_ghx2.inp to your run's scratch directory...
cp FeCO_SPK_rohf_D3h_mp2_TZmult4_diis_ghx2.inp /home/bjb2chen/gmsscr//FeCO_SPK_rohf_D3h_mp2_TZmult4_diis_ghx2.F05
unset echo
 
Assuming a single but multicore node.
 
/home/bjb2chen/gamess/ddikick.x /home/bjb2chen/gamess/gamess.00.x FeCO_SPK_rohf_D3h_mp2_TZmult4_diis_ghx2 -ddi 1 6 io003:cpus=6 -scr /home/bjb2chen/gmsscr/

 Distributed Data Interface kickoff program.
 Initiating 6 compute processes on 1 nodes to run the following command:
 /home/bjb2chen/gamess/gamess.00.x FeCO_SPK_rohf_D3h_mp2_TZmult4_diis_ghx2 

          ******************************************************
          *         GAMESS VERSION = 02 AUG 2018 (R2)         *
          *             FROM IOWA STATE UNIVERSITY             *
          * M.W.SCHMIDT, K.K.BALDRIDGE, J.A.BOATZ, S.T.ELBERT, *
          *   M.S.GORDON, J.H.JENSEN, S.KOSEKI, N.MATSUNAGA,   *
          *          K.A.NGUYEN, S.J.SU, T.L.WINDUS,           *
          *       TOGETHER WITH M.DUPUIS, J.A.MONTGOMERY       *
          *         J.COMPUT.CHEM.  14, 1347-1363(1993)        *
          **************** 64 BIT LINUX VERSION ****************

  SINCE 1993, STUDENTS AND POSTDOCS WORKING AT IOWA STATE UNIVERSITY
  AND ALSO IN THEIR VARIOUS JOBS AFTER LEAVING ISU HAVE MADE IMPORTANT
  CONTRIBUTIONS TO THE CODE:
     IVANA ADAMOVIC, CHRISTINE AIKENS, YURI ALEXEEV, POOJA ARORA,
     ANDREY ASADCHEV, ROB BELL, PRADIPTA BANDYOPADHYAY, JONATHAN BENTZ,
     BRETT BODE, KURT BRORSEN, CALEB CARLIN, GALINA CHABAN, WEI CHEN,
     CHEOL HO CHOI, PAUL DAY, ALBERT DEFUSCO, NUWAN DESILVA, TIM DUDLEY,
     DMITRI FEDOROV, ALEX FINDLATER, GRAHAM FLETCHER, MARK FREITAG,
     KURT GLAESEMANN, ANASTASIA GUININA,
     DAN KEMP, GRANT MERRILL, NORIYUKI MINEZAWA, JONATHAN MULLIN,
     TAKESHI NAGATA, SEAN NEDD, HEATHER NETZLOFF, BOSILJKA NJEGIC, RYAN OLSON,
     MIKE PAK, BUU PHAM,
     SPENCER PRUITT, LUKE ROSKOP, JIM SHOEMAKER, LYUDMILA SLIPCHENKO,
     TONY SMITH, SAROM SOK LEANG, JIE SONG, TETSUYA TAKETSUGU, SIMON WEBB,
     PENG XU, SOOHAENG YOO, FEDERICO ZAHARIEV

  ADDITIONAL CODE HAS BEEN PROVIDED BY COLLABORATORS IN OTHER GROUPS:
     IOWA STATE UNIVERSITY:
          JOE IVANIC, AARON WEST, LAIMUTIS BYTAUTAS, KLAUS RUEDENBERG
     UNIVERSITY OF TOKYO: KIMIHIKO HIRAO, TAKAHITO NAKAJIMA,
          TAKAO TSUNEDA, MUNEAKI KAMIYA, SUSUMU YANAGISAWA,
          KIYOSHI YAGI, MAHITO CHIBA, SEIKEN TOKURA, NAOAKI KAWAKAMI
     UNIVERSITY OF AARHUS: FRANK JENSEN
     UNIVERSITY OF IOWA: VISVALDAS KAIRYS, HUI LI
     NATIONAL INST. OF STANDARDS AND TECHNOLOGY: WALT STEVENS, DAVID GARMER
     UNIVERSITY OF PISA: BENEDETTA MENNUCCI, JACOPO TOMASI
     UNIVERSITY OF MEMPHIS: HENRY KURTZ, PRAKASHAN KORAMBATH
     UNIVERSITY OF ALBERTA: TOBY ZENG, MARIUSZ KLOBUKOWSKI
     UNIVERSITY OF NEW ENGLAND: MARK SPACKMAN
     MIE UNIVERSITY: HIROAKI UMEDA
     NAT. INST. OF ADVANCED INDUSTRIAL SCIENCE AND TECHNOLOGY: KAZUO KITAURA
     MICHIGAN STATE UNIVERSITY:
          KAROL KOWALSKI, MARTA WLOCH, JEFFREY GOUR, JESSE LUTZ,
          WEI LI, JUN SHEN, J. EMILIANO DEUSTUA, PIOTR PIECUCH
     UNIVERSITY OF MINNESOTA:
          YINAN SHU
     UNIVERSITY OF SILESIA: MONIKA MUSIAL, STANISLAW KUCHARSKI
     FACULTES UNIVERSITAIRES NOTRE-DAME DE LA PAIX:
          OLIVIER QUINET, BENOIT CHAMPAGNE
     UNIVERSITY OF CALIFORNIA - SANTA BARBARA: BERNARD KIRTMAN
     INSTITUTE FOR MOLECULAR SCIENCE:
          KAZUYA ISHIMURA, MICHIO KATOUDA, AND SHIGERU NAGASE
     UNIVERSITY OF NOTRE DAME: ANNA POMOGAEVA, DAN CHIPMAN
     KYUSHU UNIVERSITY:
          HARUYUKI NAKANO,
          FENG LONG GU, JACEK KORCHOWIEC, MARCIN MAKOWSKI, AND YURIKO AOKI,
          HIROTOSHI MORI AND EISAKU MIYOSHI
     PENNSYLVANIA STATE UNIVERSITY:
          TZVETELIN IORDANOV, CHET SWALINA, JONATHAN SKONE,
          SHARON HAMMES-SCHIFFER
     WASEDA UNIVERSITY:
          MASATO KOBAYASHI, TOMOKO AKAMA, TSUGUKI TOUMA,
          TAKESHI YOSHIKAWA, YASUHIRO IKABATA, JUNJI SEINO,
          YUYA NAKAJIMA, HIROMI NAKAI
     NANJING UNIVERSITY: SHUHUA LI
     UNIVERSITY OF NEBRASKA:
          PEIFENG SU, DEJUN SI, NANDUN THELLAMUREGE, YALI WANG, HUI LI
     UNIVERSITY OF ZURICH: ROBERTO PEVERATI, KIM BALDRIDGE
     N. COPERNICUS UNIVERSITY AND JACKSON STATE UNIVERSITY:
          MARIA BARYSZ
     UNIVERSITY OF COPENHAGEN: Jimmy Kromann, CASPER STEINMANN
     TOKYO INSTITUTE OF TECHNOLOGY: HIROYA NAKATA
     NAGOYA UNIVERSITY: YOSHIO NISHIMOTO, STEPHAN IRLE
     MOSCOW STATE UNIVERSITY: VLADIMIR MIRONOV


 PARALLEL VERSION RUNNING ON        6 PROCESSORS IN        1 NODES.

 EXECUTION OF GAMESS BEGUN Fri Mar 15 11:48:12 2024

            ECHO OF THE FIRST FEW INPUT CARDS -
 INPUT CARD> !############################################################################# 
 INPUT CARD> !                   D_3h RHF GEOMETRY OPTIMIZATION AND HESSIAN TEMPLATE        
 INPUT CARD> ! ---------------------------------------------------------------------------  
 INPUT CARD> ! Replace the symmetry-correct coordinates, should only be two atoms.          
 INPUT CARD> ! The hydrogen or fluorine should have only one non-zero x,y,z coordinate.     
 INPUT CARD> !                                                                              
 INPUT CARD> ! Basis set?   gbasis=ccd for 2nd row,                                         
 INPUT CARD> !                         cct 3rd/4th,                                         
 INPUT CARD> !                   SPKrTZP for heavy,                                         
 INPUT CARD> !                   SPKrTZC beyond 4th                                         
 INPUT CARD> !                                                                              
 INPUT CARD> !############################################################################# 
 INPUT CARD> $system kdiag=3 mwords=300 memddi=15000 parall=.t. $end                        
 INPUT CARD> $contrl runtyp=optimize ispher=1 $end                                          
 INPUT CARD> $contrl icut=9 itol=20 inttyp=rysquad qmttol=1.0d-05 nosym=0 $end              
 INPUT CARD> $contrl scftyp=rohf  mult=4 maxit=200 icharg=1 mplevl=2 $end                   
 INPUT CARD> $scf    npunch=2 conv=1.0d-06 dirscf=.t. $end                                  
 INPUT CARD> $force  method=seminum $end                                                    
 INPUT CARD> $trans  dirtrf=.t. $end                                                        
 INPUT CARD> $statpt hssend=.t. $end                                                        
 INPUT CARD> $basis  gbasis=SPKrTZP $end                                                    
 INPUT CARD> !############################################################################# 
 INPUT CARD> !                                                                              
 INPUT CARD> !                       TURN ON THIS SECTION IF HEAVY ATOM                     
 INPUT CARD> !                                                                              
 INPUT CARD> !############################################################################# 
 INPUT CARD> !                                                                              
 INPUT CARD> $contrl relwfn=LUT-IOTC $end                                                   
 INPUT CARD> $scf  diis=.t. soscf=.f. ethrsh=10.0 $end                                      
 INPUT CARD> -guess iorder(25)=27,25,26 $end                                                
 INPUT CARD> -gmcpt nsolut=100 $end                                                         
 INPUT CARD> !                                                                              
 INPUT CARD> !############################################################################# 
 INPUT CARD> !                                                                              
 INPUT CARD> ! TURN ON THIS SECTION IF GMCPT, CHANGE runtyp=energy, scftyp=mcscf, change nos
 INPUT CARD> !                                                                              
 INPUT CARD> !############################################################################# 
 INPUT CARD> $guess  guess=moread norb=369 purify=.t. norder=1 $end                         
 INPUT CARD> -mcscf  cistep=gmcci fullnr=.t. finci=mos                                      
 INPUT CARD>         acurcy=1.d-6 maxit=100 $end                                            
 INPUT CARD> -mrmp   mrpt=gmcpt rdvecs=.f. $end                                             
 INPUT CARD> -gmcpt  nmofzc=27 nmodoc=0 nmoact=5 nelact=5 stsym(1)=A                        
 INPUT CARD>         reftyp=ormas nspace=1 mstart(1)=28 mine(1)=5 maxe(1)=5                 
 INPUT CARD>         kstate(1)=1                                                            
 INPUT CARD>         wstate(1)=1                                                            
 INPUT CARD>         iwgt=0 thrwgt=-1.0 krot=.f. kszdoe=.f. knospn=.f.                      
 INPUT CARD>         thrde=-1.0 edshft=0.02 $end                                            
 INPUT CARD> !############################################################################# 
 INPUT CARD> !                                                                              
 INPUT CARD> !             TURN OFF THIS SECTION IF temp.inp, add C1                        
  300000000 WORDS OF MEMORY AVAILABLE

     $BASIS REQUESTS READING THE "SPKRTZP " BASIS SET FROM AN EXTERNAL FILE


     RUN TITLE
     ---------
  Iron pentacarbonyl optimization                                                

 THE POINT GROUP OF THE MOLECULE IS DNH     
 THE ORDER OF THE PRINCIPAL AXIS IS     3

 THE EXTERNAL BASIS SET FILE BEING READ IS
     "/home/bjb2chen/gamess/auxdata/BASES/SPKRTZP"

 ATOM      ATOMIC                      COORDINATES (BOHR)
           CHARGE         X                   Y                   Z
 FE         26.0     0.0000000000       -0.0000000000        0.0000000000
 C           6.0    -1.8374781388        3.1826054943        0.0000000000
 C           6.0    -1.8374781388       -3.1826054943        0.0000000000
 C           6.0     3.6749562777        0.0000000000        0.0000000000
 O           8.0    -2.9170688135        5.0525113941        0.0000000000
 O           8.0    -2.9170688135       -5.0525113941        0.0000000000
 O           8.0     5.8341376269        0.0000000000        0.0000000000
 C           6.0     0.0000000000        0.0000000000       -3.7806120833
 C           6.0     0.0000000000       -0.0000000000        3.7806120833
 O           8.0     0.0000000000        0.0000000000       -5.9285383079
 O           8.0    -0.0000000000       -0.0000000000        5.9285383079

          INTERNUCLEAR DISTANCES (ANGS.)
          ------------------------------

                1 FE         2 C          3 C          4 C          5 O     

   1 FE      0.0000000    1.9447033 *  1.9447033 *  1.9447033 *  3.0872929  
   2 C       1.9447033 *  0.0000000    3.3683248    3.3683248    1.1425896 *
   3 C       1.9447033 *  3.3683248    0.0000000    3.3683248    4.3951242  
   4 C       1.9447033 *  3.3683248    3.3683248    0.0000000    4.3951242  
   5 O       3.0872929    1.1425896 *  4.3951242    4.3951242    0.0000000  
   6 O       3.0872929    4.3951242    1.1425896 *  4.3951242    5.3473482  
   7 O       3.0872929    4.3951242    4.3951242    1.1425896 *  5.3473482  
   8 C       2.0006139 *  2.7900406 *  2.7900406 *  2.7900406 *  3.6788359  
   9 C       2.0006139 *  2.7900406 *  2.7900406 *  2.7900406 *  3.6788359  
  10 O       3.1372476    3.6910965    3.6910965    3.6910965    4.4015565  
  11 O       3.1372476    3.6910965    3.6910965    3.6910965    4.4015565  

                6 O          7 O          8 C          9 C         10 O     

   1 FE      3.0872929    3.0872929    2.0006139 *  2.0006139 *  3.1372476  
   2 C       4.3951242    4.3951242    2.7900406 *  2.7900406 *  3.6910965  
   3 C       1.1425896 *  4.3951242    2.7900406 *  2.7900406 *  3.6910965  
   4 C       4.3951242    1.1425896 *  2.7900406 *  2.7900406 *  3.6910965  
   5 O       5.3473482    5.3473482    3.6788359    3.6788359    4.4015565  
   6 O       0.0000000    5.3473482    3.6788359    3.6788359    4.4015565  
   7 O       5.3473482    0.0000000    3.6788359    3.6788359    4.4015565  
   8 C       3.6788359    3.6788359    0.0000000    4.0012278    1.1366337 *
   9 C       3.6788359    3.6788359    4.0012278    0.0000000    5.1378615  
  10 O       4.4015565    4.4015565    1.1366337 *  5.1378615    0.0000000  
  11 O       4.4015565    4.4015565    5.1378615    1.1366337 *  6.2744952  

               11 O     

   1 FE      3.1372476  
   2 C       3.6910965  
   3 C       3.6910965  
   4 C       3.6910965  
   5 O       4.4015565  
   6 O       4.4015565  
   7 O       4.4015565  
   8 C       5.1378615  
   9 C       1.1366337 *
  10 O       6.2744952  
  11 O       0.0000000  

  * ... LESS THAN  3.000


     ATOMIC BASIS SET
     ----------------
 THE CONTRACTED PRIMITIVE FUNCTIONS HAVE BEEN UNNORMALIZED
 THE CONTRACTED BASIS FUNCTIONS ARE NOW NORMALIZED TO UNITY

  SHELL TYPE  PRIMITIVE        EXPONENT          CONTRACTION COEFFICIENT(S)

 FE        

      1   S       1       1100791.5305010    0.000473999976
      1   S       2        111958.3587060    0.002184999889
      1   S       3         19185.3576710    0.008689999559
      1   S       4          4445.3037100    0.032685998341
      1   S       5          1266.9965100    0.110141994410
      1   S       6           416.6310290    0.284031985586
      1   S       7           150.8643160    0.454264876947
      1   S       8            56.3399190    0.263064986650

      2   S       9           359.6946140   -0.022463999939
      2   S      10           108.1698330   -0.110348999698
      2   S      11            16.2239570    0.581708898408
      2   S      12             6.5680420    0.504839898618

      3   S      13            10.7418790   -0.362092191734
      3   S      14             1.7503840    1.164823573408

      4   S      15             2.5115960    1.000000000000

      5   S      16             0.7053330    1.000000000000

      6   S      17             0.3621190    1.000000000000

      7   S      18             0.1098870    1.000000000000

      8   S      19             0.0389760    1.000000000000

      9   P      20          3763.5373930    0.001033999945
      9   P      21           777.6255800    0.008099999572
      9   P      22           235.1625800    0.042150997771
      9   P      23            85.2386240    0.150979992017
      9   P      24            34.2178420    0.344345981793
      9   P      25            14.4530580    0.445691976434
      9   P      26             6.0108430    0.197984989532

     10   P      27            29.2356570   -0.050671998602
     10   P      28             3.8658850    1.015612071978

     11   P      29             1.5321320    1.000000000000

     12   P      30             0.6880240    1.000000000000

     13   P      31             0.3377060    1.000000000000

     14   P      32             0.1058510    1.000000000000

     15   D      33           153.1499290    0.002483999928
     15   D      34            39.2185330    0.024814999278
     15   D      35            13.1241220    0.112497096729
     15   D      36             4.9420130    0.294331191441
     15   D      37             1.9182510    0.436439287309
     15   D      38             0.7263080    0.400155288364

     16   D      39             1.2013780    1.000000000000

     17   D      40             0.4134800    1.000000000000

     18   D      41             0.2769570    0.803321387841
     18   D      42             0.1024240    0.267279095955

     19   F      43             7.1173700    0.248360909500
     19   F      44             2.0161170    0.867482733183

     20   F      45             0.5734880    1.000000000000

     21   G      46             3.1098950    0.428615975933
     21   G      47             0.8477510    0.770538956734

 C         

     42   S      48          2806.9439975    0.002023800059
     42   S      49           421.5775504    0.015441100454
     42   S      50            95.8957402    0.075177402208
     42   S      51            26.9445497    0.249027707314
     42   S      52             8.5713784    0.482075214159
     42   S      53             2.8716364    0.326878109601

     43   S      54             4.9998841   -0.210680004154
     43   S      55             0.5327613    1.077681121247

     44   S      56             0.2075124    1.000000000000

     45   S      57             0.0868337    1.000000000000

     46   P      58            18.6818848    0.039471499719
     46   P      59             4.1250373    0.244388698258
     46   P      60             1.1979790    0.815218894188

     47   P      61             0.3821592    1.000000000000

     48   P      62             0.1206886    1.000000000000

     49   D      63             3.0148490    0.111983997300
     49   D      64             0.8820640    0.935464277443

     50   D      65             0.2854600    1.000000000000

     51   F      66             1.2468250    0.439684998371
     51   F      67             0.4390430    0.686338997457

 O         

     72   S      68          5077.7107079    0.002005200049
     72   S      69           762.6032479    0.015311300372
     72   S      70           173.4747916    0.074816301816
     72   S      71            48.8026730    0.249940906066
     72   S      72            15.6087813    0.483164411726
     72   S      73             5.2562810    0.324034307864

     73   S      74             9.8167720   -0.213008798624
     73   S      75             1.0626144    1.079351093025

     74   S      76             0.4112889    1.000000000000

     75   S      77             0.1672821    1.000000000000

     76   P      78            34.4309698    0.041201500385
     76   P      79             7.7428211    0.257878902408
     76   P      80             2.2788395    0.802283507490

     77   P      81             0.7151603    1.000000000000

     78   P      82             0.2137722    1.000000000000

     79   D      83             5.9603300    0.136289097514
     79   D      84             1.7648530    0.919489483226

     80   D      85             0.5756600    1.000000000000

     81   F      86             2.4143370    0.424090301385
     81   F      87             0.7676600    0.719405502349

 C         

     92   S      88          2806.9439975    0.002023800059
     92   S      89           421.5775504    0.015441100454
     92   S      90            95.8957402    0.075177402208
     92   S      91            26.9445497    0.249027707314
     92   S      92             8.5713784    0.482075214159
     92   S      93             2.8716364    0.326878109601

     93   S      94             4.9998841   -0.210680004154
     93   S      95             0.5327613    1.077681121247

     94   S      96             0.2075124    1.000000000000

     95   S      97             0.0868337    1.000000000000

     96   P      98            18.6818848    0.039471499719
     96   P      99             4.1250373    0.244388698258
     96   P     100             1.1979790    0.815218894188

     97   P     101             0.3821592    1.000000000000

     98   P     102             0.1206886    1.000000000000

     99   D     103             3.0148490    0.111983997300
     99   D     104             0.8820640    0.935464277443

    100   D     105             0.2854600    1.000000000000

    101   F     106             1.2468250    0.439684998371
    101   F     107             0.4390430    0.686338997457

 O         

    112   S     108          5077.7107079    0.002005200049
    112   S     109           762.6032479    0.015311300372
    112   S     110           173.4747916    0.074816301816
    112   S     111            48.8026730    0.249940906066
    112   S     112            15.6087813    0.483164411726
    112   S     113             5.2562810    0.324034307864

    113   S     114             9.8167720   -0.213008798624
    113   S     115             1.0626144    1.079351093025

    114   S     116             0.4112889    1.000000000000

    115   S     117             0.1672821    1.000000000000

    116   P     118            34.4309698    0.041201500385
    116   P     119             7.7428211    0.257878902408
    116   P     120             2.2788395    0.802283507490

    117   P     121             0.7151603    1.000000000000

    118   P     122             0.2137722    1.000000000000

    119   D     123             5.9603300    0.136289097514
    119   D     124             1.7648530    0.919489483226

    120   D     125             0.5756600    1.000000000000

    121   F     126             2.4143370    0.424090301385
    121   F     127             0.7676600    0.719405502349

 TOTAL NUMBER OF BASIS SET SHELLS             =  121
 NUMBER OF CARTESIAN GAUSSIAN BASIS FUNCTIONS =  435
 NOTE: THIS RUN WILL RESTRICT THE MO VARIATION SPACE TO SPHERICAL HARMONICS.
 THE NUMBER OF ORBITALS KEPT IN THE VARIATIONAL SPACE WILL BE PRINTED LATER.
 NUMBER OF ELECTRONS                          =   95
 CHARGE OF MOLECULE                           =    1
 SPIN MULTIPLICITY                            =    4
 NUMBER OF OCCUPIED ORBITALS (ALPHA)          =   49
 NUMBER OF OCCUPIED ORBITALS (BETA )          =   46
 TOTAL NUMBER OF ATOMS                        =   11
 THE NUCLEAR REPULSION ENERGY IS      758.9269559748

     ---------------------------------
     RELATIVISTIC WAVEFUNCTION OPTIONS
     ---------------------------------
     METHOD=LUT-IOTC NORDER= 2       NESOC=  0      MODEQR=      1
     NRATOM=  0      QMTTOL= 1.000E-10      QRTOL= 1.000E-10
     CLIGHT=137.03598950     TAU= 3.500E+00

 INTERNAL BASIS SET UNCONTRACTION FOR RESC/DK/IOTC/LUT-IOTC:
   247 SHELLS AND    808 AOS ARE CONSTRUCTED, COMPARED TO
   121 SHELLS AND    435 AOS IN THE CONTRACTED BASIS SET


     $CONTRL OPTIONS
     ---------------
 SCFTYP=ROHF         RUNTYP=OPTIMIZE     EXETYP=RUN     
 MPLEVL=       2     CITYP =NONE         CCTYP =NONE         VBTYP =NONE    
 DFTTYP=NONE         TDDFT =NONE    
 MULT  =       4     ICHARG=       1     NZVAR =       0     COORD =UNIQUE  
 PP    =NONE         RELWFN=LUT-IOTC     LOCAL =NONE         NUMGRD=       F
 ISPHER=       1     NOSYM =       0     MAXIT =     200     UNITS =ANGS    
 PLTORB=       F     MOLPLT=       F     AIMPAC=       F     FRIEND=        
 NPRINT=       7     IREST =       0     GEOM  =INPUT   
 NORMF =       0     NORMP =       0     ITOL  =      20     ICUT  =       9
 INTTYP=RYSQUAD      GRDTYP=BEST         QMTTOL= 1.0E-05

     $SYSTEM OPTIONS
     ---------------
  REPLICATED MEMORY=   300000000 WORDS (ON EVERY NODE).
 DISTRIBUTED MEMDDI=       15000 MILLION WORDS IN AGGREGATE,
 MEMDDI DISTRIBUTED OVER   6 PROCESSORS IS  2500000000 WORDS/PROCESSOR.
 TOTAL MEMORY REQUESTED ON EACH PROCESSOR=  2800000000 WORDS.
 TIMLIM=      525600.00 MINUTES, OR     365.0 DAYS.
 PARALL= T  BALTYP=  DLB     KDIAG=    3  COREFL= F
 MXSEQ2=     300 MXSEQ3=     150  mem10=         0

          ----------------
          PROPERTIES INPUT
          ----------------

     MOMENTS            FIELD           POTENTIAL          DENSITY
 IEMOM =       1   IEFLD =       0   IEPOT =       0   IEDEN =       0
 WHERE =COMASS     WHERE =NUCLEI     WHERE =NUCLEI     WHERE =NUCLEI  
 OUTPUT=BOTH       OUTPUT=BOTH       OUTPUT=BOTH       OUTPUT=BOTH    
 IEMINT=       0   IEFINT=       0                     IEDINT=       0
                                                       MORB  =       0
          EXTRAPOLATION IN EFFECT
          DIIS IN EFFECT
 ORBITAL PRINTING OPTION: NPREO=     1   435     2     1

     -------------------------------
     INTEGRAL TRANSFORMATION OPTIONS
     -------------------------------
     NWORD  =            0
     CUTOFF = 1.0E-09     MPTRAN =       0
     DIRTRF =       T     AOINTS =DUP     

          ----------------------
          INTEGRAL INPUT OPTIONS
          ----------------------
 NOPK  =       1 NORDER=       0 SCHWRZ=       T

          -----------------------
          MP2 CONTROL INFORMATION
          -----------------------
          NACORE =       19  NBCORE =       19
          LMOMP2 =        F  AOINTS = DUP     
          METHOD =        2  NWORD  =               0
          MP2PRP =        F  OSPT   = ZAPT    
          CUTOFF = 1.00E-09  CPHFBS = BASISAO 
          CODE   = DDI     

          NUMBER OF CORE -A-  ORBITALS =    19
          NUMBER OF CORE -B-  ORBITALS =    19
          NUMBER OF OCC. -A-  ORBITALS =    49
          NUMBER OF OCC. -B-  ORBITALS =    46
          NUMBER OF MOLECULAR ORBITALS =   435
          NUMBER OF   BASIS  FUNCTIONS =   435


 **** EFFICIENCY NOTE ****
 THE MP2 TRANSFORMATION CANNOT USE SYMMETRY WHEN THE GROUP IS NON-ABELIAN.
 YOU MAY BE ABLE TO SPEED UP THIS RUN BY USING AN ABELIAN SUBGROUP IN $DATA.


     ------------------------------------------
     THE POINT GROUP IS DNH, NAXIS= 3, ORDER=12
     ------------------------------------------

 -- VARIATIONAL SPACE WILL BE RESTRICTED TO PURE SPHERICAL HARMONICS ONLY --
 AFTER EXCLUDING CONTAMINANT COMBINATIONS FROM THE CARTESIAN GAUSSIAN BASIS
 SET, THE NUMBER OF SPHERICAL HARMONICS KEPT IN THE VARIATION SPACE IS  369

     DIMENSIONS OF THE SYMMETRY SUBSPACES ARE
 A1' =   63     A1" =    9     A2' =   18     A2" =   45     E'' =   45
 E'  =   72

 ..... DONE SETTING UP THE RUN .....
 CPU     0: STEP CPU TIME=     1.81 TOTAL CPU TIME=          1.8 (      0.0 MIN)
 TOTAL WALL CLOCK TIME=          1.9 SECONDS, CPU UTILIZATION IS    96.79%


          -----------------------------
          STATIONARY POINT LOCATION RUN
          -----------------------------

 OBTAINING INITIAL HESSIAN, HESS=GUESS   
 CARTESIAN COORDINATE OPTIMIZATION USING BADGER'S RULE FORCE CONSTANT GUESS

          PARAMETERS CONTROLLING GEOMETRY SEARCH ARE
          METHOD =QA                  UPHESS =BFGS    
          NNEG   =         0          NFRZ   =         0
          NSTEP  =        50          IFOLOW =         1
          HESS   =GUESS               RESTAR =         F
          IHREP  =         0          HSSEND =         T
          NPRT   =         0          NPUN   =         0
          OPTTOL = 1.000E-04          RMIN   = 1.500E-03
          RMAX   = 1.000E-01          RLIM   = 7.000E-02
          DXMAX  = 3.000E-01          PURIFY =         F
          MOVIE  =         F          TRUPD  =         T
          TRMAX  = 5.000E-01          TRMIN  = 5.000E-02
          ITBMAT =         5          STPT   =         F
          STSTEP = 1.000E-02          PROJCT=          T

 BEGINNING GEOMETRY SEARCH POINT NSERCH=   0 ...

 COORDINATES OF SYMMETRY UNIQUE ATOMS (ANGS)
   ATOM   CHARGE       X              Y              Z
 ------------------------------------------------------------
 FE         26.0   0.0000000000  -0.0000000000   0.0000000000
 C           6.0   1.9447032541   0.0000000000   0.0000000000
 O           8.0   3.0872929011   0.0000000000   0.0000000000
 C           6.0   0.0000000000  -0.0000000000   2.0006139027
 O           8.0  -0.0000000000  -0.0000000000   3.1372475938
 COORDINATES OF ALL ATOMS ARE (ANGS)
   ATOM   CHARGE       X              Y              Z
 ------------------------------------------------------------
 FE         26.0   0.0000000000  -0.0000000000   0.0000000000
 C           6.0  -0.9723516271   1.6841624209   0.0000000000
 C           6.0  -0.9723516271  -1.6841624209   0.0000000000
 C           6.0   1.9447032541   0.0000000000   0.0000000000
 O           8.0  -1.5436464505   2.6736740813   0.0000000000
 O           8.0  -1.5436464506  -2.6736740813   0.0000000000
 O           8.0   3.0872929011   0.0000000000   0.0000000000
 C           6.0   0.0000000000   0.0000000000  -2.0006139027
 C           6.0   0.0000000000  -0.0000000000   2.0006139027
 O           8.0   0.0000000000   0.0000000000  -3.1372475938
 O           8.0  -0.0000000000  -0.0000000000   3.1372475938

          ********************
          1 ELECTRON INTEGRALS
          ********************
 TIME TO DO ORDINARY INTEGRALS=      0.05

 ======================================================================
      INFINITE-ORDER TWO-COMPONENT (IOTC) ONE-ELECTRON HAMILTONIAN
      WITH LOCAL UNITARY TRANSFORMATION (LUT) SCHEME
                                            CODED BY YUYA NAKAJIMA
             J. SEINO, H. NAKAI, J. CHEM. PHYS. 136, 244102 (2012)
             J. SEINO, H. NAKAI, J. CHEM. PHYS. 137, 144101 (2012)
             J. SEINO, H. NAKAI, J. CHEM. PHYS. 139, 034109 (2013)
        J. SEINO, H. NAKAI, INT. J. QUANTUM. CHEM. 115, 253 (2015)
 ======================================================================

 LUT-IOTC TRANSFORMATION FOR ATOM:    1
 THE SMALLEST EIGENVALUE OF THE OVERLAP MATRIX IS   5.23E-12
 THERE ARE     2 OVERLAP MATRIX EIGENVALUES LESS THAN   1.00E-10
 THE NUMBER OF LINEARLY INDEPENDENT ORBITALS KEPT IS   176

 LUT-IOTC TRANSFORMATION FOR ATOM:    2
 LUT-IOTC TRANSFORMATION FOR ATOM:    3
 LUT-IOTC TRANSFORMATION FOR ATOM:    4
 LUT-IOTC TRANSFORMATION FOR ATOM:    5
 LUT-IOTC TRANSFORMATION FOR ATOM:    6
 LUT-IOTC TRANSFORMATION FOR ATOM:    7
 LUT-IOTC TRANSFORMATION FOR ATOM:    8
 LUT-IOTC TRANSFORMATION FOR ATOM:    9
 LUT-IOTC TRANSFORMATION FOR ATOM:   10
 LUT-IOTC TRANSFORMATION FOR ATOM:   11

     -------------------------------------
     LUT-IOTC TRANSFORMATION FOR ATOM-PAIR
     -------------------------------------

                1 FE         2 C          3 C          4 C          5 O     

   1 FE      0.0000000    1.9447033 *  1.9447033 *  1.9447033 *  3.0872929 *
   2 C       1.9447033 *  0.0000000    3.3683248 *  3.3683248 *  1.1425896 *
   3 C       1.9447033 *  3.3683248 *  0.0000000    3.3683248 *  4.3951242  
   4 C       1.9447033 *  3.3683248 *  3.3683248 *  0.0000000    4.3951242  
   5 O       3.0872929 *  1.1425896 *  4.3951242    4.3951242    0.0000000  
   6 O       3.0872929 *  4.3951242    1.1425896 *  4.3951242    5.3473482  
   7 O       3.0872929 *  4.3951242    4.3951242    1.1425896 *  5.3473482  
   8 C       2.0006139 *  2.7900406 *  2.7900406 *  2.7900406 *  3.6788359  
   9 C       2.0006139 *  2.7900406 *  2.7900406 *  2.7900406 *  3.6788359  
  10 O       3.1372476 *  3.6910965    3.6910965    3.6910965    4.4015565  
  11 O       3.1372476 *  3.6910965    3.6910965    3.6910965    4.4015565  

                6 O          7 O          8 C          9 C         10 O     

   1 FE      3.0872929 *  3.0872929 *  2.0006139 *  2.0006139 *  3.1372476 *
   2 C       4.3951242    4.3951242    2.7900406 *  2.7900406 *  3.6910965  
   3 C       1.1425896 *  4.3951242    2.7900406 *  2.7900406 *  3.6910965  
   4 C       4.3951242    1.1425896 *  2.7900406 *  2.7900406 *  3.6910965  
   5 O       5.3473482    5.3473482    3.6788359    3.6788359    4.4015565  
   6 O       0.0000000    5.3473482    3.6788359    3.6788359    4.4015565  
   7 O       5.3473482    0.0000000    3.6788359    3.6788359    4.4015565  
   8 C       3.6788359    3.6788359    0.0000000    4.0012278    1.1366337 *
   9 C       3.6788359    3.6788359    4.0012278    0.0000000    5.1378615  
  10 O       4.4015565    4.4015565    1.1366337 *  5.1378615    0.0000000  
  11 O       4.4015565    4.4015565    5.1378615    1.1366337 *  6.2744952  

               11 O     

   1 FE      3.1372476 *
   2 C       3.6910965  
   3 C       3.6910965  
   4 C       3.6910965  
   5 O       4.4015565  
   6 O       4.4015565  
   7 O       4.4015565  
   8 C       5.1378615  
   9 C       1.1366337 *
  10 O       6.2744952  
  11 O       0.0000000  

  * ... TRANSFORMED ATOM PAIR (LESS THAN   3.500 ANGS.)

 TIME TO DO  RELATIVISTIC INTS=      0.86
 ...... END OF ONE-ELECTRON INTEGRALS ......
 CPU     0: STEP CPU TIME=     1.03 TOTAL CPU TIME=          2.8 (      0.0 MIN)
 TOTAL WALL CLOCK TIME=          3.4 SECONDS, CPU UTILIZATION IS    84.52%

          -------------
          GUESS OPTIONS
          -------------
          GUESS =MOREAD            NORB  =     369          NORDER=       1
          MIX   =       F          PRTMO =       F          PUNMO =       F
          TOLZ  = 1.0E-08          TOLE  = 1.0E-05
          SYMDEN=       F          PURIFY=       T

 INITIAL GUESS ORBITALS GENERATED BY MOREAD   ROUTINE.

 STATISTICS FOR GENERATION OF SYMMETRY ORBITAL -Q- MATRIX
 NUMBER OF CARTESIAN ATOMIC ORBITALS=        435
 NUMBER OF SPHERICAL CONTAMINANTS DROPPED=    66
 NUMBER OF LINEARLY DEPENDENT MOS DROPPED=     0
 TOTAL NUMBER OF MOS IN VARIATION SPACE=     369
 ORBITAL PURIFICATION WILL OCCUR

 SYMMETRIES FOR INITIAL GUESS ORBITALS FOLLOW.  ALPHA SET(S).
    49 ORBITALS ARE OCCUPIED (   19 CORE ORBITALS).
    20=A1'     21=E'      22=E'      23=A1'     24=A2"     25=E''     26=E'' 
    27=A1'     28=E'      29=E'      30=A1'     31=A2"     32=A1'     33=E'  
    34=E'      35=A1'     36=A2"     37=E''     38=E''     39=E'      40=E'  
    41=A2'     42=A2"     43=E'      44=E'      45=E''     46=E''     47=E'  
    48=E'      49=A1'     50=E''     51=E''     52=E'      53=E'      54=A2" 
    55=A2'     56=E'      57=E'      58=E''     59=E'' 
 ORBITAL PURIFICATION WILL OCCUR

 SYMMETRIES FOR INITIAL GUESS ORBITALS FOLLOW.   BETA SET(S).
    46 ORBITALS ARE OCCUPIED (   19 CORE ORBITALS).
    20=A1'     21=E'      22=E'      23=A1'     24=A2"     25=E''     26=E'' 
    27=A1'     28=E'      29=E'      30=A1'     31=A2"     32=A1'     33=E'  
    34=E'      35=A1'     36=A2"     37=E''     38=E''     39=E'      40=E'  
    41=A2'     42=A2"     43=E'      44=E'      45=E''     46=E''     47=E'  
    48=E'      49=A1'     50=E''     51=E''     52=E'      53=E'      54=A2" 
    55=A2'     56=E'  
 ...... END OF INITIAL ORBITAL SELECTION ......
 CPU     0: STEP CPU TIME=     4.75 TOTAL CPU TIME=          7.6 (      0.1 MIN)
 TOTAL WALL CLOCK TIME=          8.3 SECONDS, CPU UTILIZATION IS    91.01%

                    ----------------------
                    AO INTEGRAL TECHNOLOGY
                    ----------------------
     S,P,L SHELL ROTATED AXIS INTEGRALS, REPROGRAMMED BY
        KAZUYA ISHIMURA (IMS) AND JOSE SIERRA (SYNSTAR).
     S,P,D,L SHELL ROTATED AXIS INTEGRALS PROGRAMMED BY
        KAZUYA ISHIMURA (INSTITUTE FOR MOLECULAR SCIENCE).
     S,P,D,F,G SHELL TO TOTAL QUARTET ANGULAR MOMENTUM SUM 5,
        ERIC PROGRAM BY GRAHAM FLETCHER (ELORET AND NASA ADVANCED
        SUPERCOMPUTING DIVISION, AMES RESEARCH CENTER).
     S,P,D,F,G,L SHELL GENERAL RYS QUADRATURE PROGRAMMED BY
        MICHEL DUPUIS (PACIFIC NORTHWEST NATIONAL LABORATORY).

          --------------------
          2 ELECTRON INTEGRALS
          --------------------

 DIRECT SCF METHOD SKIPS INTEGRAL STORAGE ON DISK.
 DIRECT TRANSFORMATION SKIPS AO INTEGRAL STORAGE ON DISK.
  ...... END OF TWO-ELECTRON INTEGRALS .....
 CPU     0: STEP CPU TIME=     0.01 TOTAL CPU TIME=          7.6 (      0.1 MIN)
 TOTAL WALL CLOCK TIME=          8.4 SECONDS, CPU UTILIZATION IS    91.02%

          ---------------------------
                 ROHF SCF CALCULATION
          ---------------------------

     NUCLEAR ENERGY =       758.9269559748
     MAXIT =200     NPUNCH=  2     MULT=  4
     EXTRAP=T  DAMP=F  SHIFT=F  RSTRCT=F  DIIS=T  SOSCF=F
     DENSITY MATRIX CONV=  2.00E-06
     ROHF CANONICALIZATION PARAMETERS
             C-C     O-O     V-V
     ALPHA -0.5000  0.5000  1.5000
     BETA   1.5000  0.5000 -0.5000
     MEMORY REQUIRED FOR UHF/ROHF ITERS=   1839677 WORDS.

 DIRECT SCF CALCULATION, SCHWRZ=T   FDIFF=T
 SCHWARZ INEQUALITY OVERHEAD:     88393 INTEGRALS, T=        0.03

                                                                                NONZERO     BLOCKS
 ITER EX      TOTAL ENERGY        E CHANGE  DENSITY CHANGE    DIIS ERROR      INTEGRALS    SKIPPED
          * * *   INITIATING DIIS PROCEDURE   * * *
   1  0    -1834.0134015012 -1834.0134015012  31.021277506   0.251937972      223053818    1585290
   2  1    -1822.5388466841    11.4745548172  30.898862326   0.743835535      223667310    1553339
   3  2    -1834.9516694479   -12.4128227638   0.202399869   0.125385841      223247289    1568031
   4  3    -1835.0976310843    -0.1459616364   0.074050555   0.078285679      217383190    1756297
   5  4    -1835.1654896999    -0.0678586156   0.090365189   0.031605089      214881802    1811099
   6  5    -1835.1746699546    -0.0091802547   0.034698330   0.012831836      212000942    1864129
   7  6    -1835.1761390865    -0.0014691319   0.040018108   0.001794873      206606653    1944653
   8  7    -1835.1761537393    -0.0000146528   0.076002872   0.001980695      201212766    2001847
   9  8    -1835.1761878870    -0.0000341478   0.075251241   0.000883827      200961794    1990510
  10  9    -1835.1762250719    -0.0000371849   0.027694714   0.000431781      197915096    2016994
  11 10    -1835.1762403254    -0.0000152535   0.002312167   0.000154642      191888602    2096899
  12 11    -1835.1762408325    -0.0000005071   0.000163450   0.000040281      174704971    2297490
  13 12    -1835.1762408669    -0.0000000344   0.000073169   0.000034823      161503408    2471501
  14 13    -1835.1762408797    -0.0000000129   0.000035127   0.000016970      151069969    2577603
  15 14    -1835.1762408831    -0.0000000034   0.000020908   0.000006423      139775735    2698023
  16 15    -1835.1762408828     0.0000000003   0.000013223   0.000001224      131447479    2768277
  17 16    -1835.1762408826     0.0000000002   0.000006761   0.000000718      121355254    2868887
  18 17    -1835.1762408834    -0.0000000008   0.000003566   0.000000188      109737324    2977321
  19 18    -1835.1762408820     0.0000000014   0.000001805   0.000000121       97694606    3125891

          -----------------
          DENSITY CONVERGED
          -----------------
     TIME TO FORM FOCK OPERATORS=      94.6 SECONDS (       5.0 SEC/ITER)
     FOCK TIME ON FIRST ITERATION=       6.3, LAST ITERATION=       3.1
     TIME TO SOLVE SCF EQUATIONS=       9.6 SECONDS (       0.5 SEC/ITER)

 THE CONVERGED ORBITALS WILL UNDERGO GUEST/SAUNDERS
 CANONICALIZATION FOR ZAPT PERTURBATION THEORY.

 FINAL ROHF ENERGY IS    -1835.1762408820 AFTER  19 ITERATIONS

          --------------------
          SPIN SZ   =    1.500
          S-SQUARED =    3.750
          --------------------

          ------------
          EIGENVECTORS
          ------------

                      1          2          3          4          5
                 -263.7848   -32.5453   -27.6198   -27.6198   -27.6059
                     A1'        A1'        E'         E'         A2" 
    1  FE 1  S    0.997453  -0.320457  -0.000000  -0.000000  -0.000000
    2  FE 1  S    0.012034   1.049061  -0.000000  -0.000000  -0.000000
    3  FE 1  S    0.003830   0.029338  -0.000000  -0.000000  -0.000000
    4  FE 1  S   -0.007392  -0.015346  -0.000000  -0.000000  -0.000000
    5  FE 1  S    0.000901  -0.000568  -0.000000  -0.000000  -0.000000
    6  FE 1  S   -0.001561  -0.003641  -0.000000  -0.000000  -0.000000
    7  FE 1  S    0.001117   0.003722  -0.000000  -0.000000  -0.000000
    8  FE 1  S   -0.000052  -0.000207  -0.000000  -0.000000  -0.000000
    9  FE 1  X    0.000000   0.000000   0.997427  -0.000000  -0.000000
   10  FE 1  Y    0.000000   0.000000  -0.000000   0.997427  -0.000000
   11  FE 1  Z    0.000000   0.000000  -0.000000  -0.000000   0.997427
   12  FE 1  X    0.000000   0.000000   0.000516  -0.000000  -0.000000
   13  FE 1  Y    0.000000   0.000000  -0.000000   0.000516  -0.000000
   14  FE 1  Z    0.000000   0.000000  -0.000000  -0.000000   0.000239
   15  FE 1  X    0.000000   0.000000   0.009166  -0.000000  -0.000000
   16  FE 1  Y    0.000000   0.000000  -0.000000   0.009166  -0.000000
   17  FE 1  Z    0.000000   0.000000  -0.000000  -0.000000   0.009884
   18  FE 1  X    0.000000   0.000000  -0.002656  -0.000000  -0.000000
   19  FE 1  Y    0.000000   0.000000  -0.000000  -0.002656  -0.000000
   20  FE 1  Z    0.000000   0.000000  -0.000000  -0.000000  -0.003460
   21  FE 1  X    0.000000   0.000000   0.001446  -0.000000  -0.000000
   22  FE 1  Y    0.000000   0.000000  -0.000000   0.001446  -0.000000
   23  FE 1  Z    0.000000   0.000000  -0.000000  -0.000000   0.002509
   24  FE 1  X    0.000000   0.000000   0.000298  -0.000000  -0.000000
   25  FE 1  Y    0.000000   0.000000  -0.000000   0.000298  -0.000000
   26  FE 1  Z    0.000000   0.000000  -0.000000  -0.000000  -0.001096
   27  FE 1 XX    0.000002   0.000369  -0.000104  -0.000000  -0.000000
   28  FE 1 YY    0.000002   0.000369   0.000104  -0.000000  -0.000000
   29  FE 1 ZZ   -0.000004  -0.000738  -0.000000  -0.000000  -0.000000
   30  FE 1 XY    0.000000   0.000000  -0.000000   0.000120  -0.000000
   31  FE 1 XZ    0.000000   0.000000  -0.000000  -0.000000  -0.000000
   32  FE 1 YZ    0.000000   0.000000  -0.000000  -0.000000  -0.000000
   33  FE 1 XX   -0.000004  -0.000431   0.000057  -0.000000  -0.000000
   34  FE 1 YY   -0.000004  -0.000431  -0.000057  -0.000000  -0.000000
   35  FE 1 ZZ    0.000007   0.000861  -0.000000  -0.000000  -0.000000
   36  FE 1 XY    0.000000   0.000000  -0.000000  -0.000065  -0.000000
   37  FE 1 XZ    0.000000   0.000000  -0.000000  -0.000000  -0.000000
   38  FE 1 YZ    0.000000   0.000000  -0.000000  -0.000000  -0.000000
   39  FE 1 XX    0.000018   0.000291  -0.000185  -0.000000  -0.000000
   40  FE 1 YY    0.000018   0.000291   0.000185  -0.000000  -0.000000
   41  FE 1 ZZ   -0.000037  -0.000583  -0.000000  -0.000000  -0.000000
   42  FE 1 XY    0.000000   0.000000  -0.000000   0.000213  -0.000000
   43  FE 1 XZ    0.000000   0.000000  -0.000000  -0.000000  -0.000000
   44  FE 1 YZ    0.000000   0.000000  -0.000000  -0.000000  -0.000000
   45  FE 1 XX   -0.000061  -0.000556   0.000377  -0.000000  -0.000000
   46  FE 1 YY   -0.000061  -0.000556  -0.000377  -0.000000  -0.000000
   47  FE 1 ZZ    0.000121   0.001113  -0.000000  -0.000000  -0.000000
   48  FE 1 XY    0.000000   0.000000  -0.000000  -0.000435  -0.000000
   49  FE 1 XZ    0.000000   0.000000  -0.000000  -0.000000  -0.000000
   50  FE 1 YZ    0.000000   0.000000  -0.000000  -0.000000  -0.000000
   51  FE 1 XXX   0.000010   0.000035  -0.000056  -0.000000  -0.000000
   52  FE 1 YYY   0.000000   0.000000  -0.000000  -0.000056  -0.000000
   53  FE 1 ZZZ   0.000000   0.000000  -0.000000  -0.000000  -0.000443
   54  FE 1 XXY   0.000000   0.000000  -0.000000  -0.000025  -0.000000
   55  FE 1 XXZ   0.000000   0.000000  -0.000000  -0.000000   0.000297
   56  FE 1 YYX  -0.000013  -0.000047  -0.000025  -0.000000  -0.000000
   57  FE 1 YYZ   0.000000   0.000000  -0.000000  -0.000000   0.000297
   58  FE 1 ZZX   0.000000   0.000000   0.000101  -0.000000  -0.000000
   59  FE 1 ZZY   0.000000   0.000000  -0.000000   0.000101  -0.000000
   60  FE 1 XYZ   0.000000   0.000000  -0.000000  -0.000000  -0.000000
   61  FE 1 XXX  -0.000055  -0.000166  -0.000039  -0.000000  -0.000000
   62  FE 1 YYY   0.000000   0.000000  -0.000000  -0.000039  -0.000000
   63  FE 1 ZZZ   0.000000   0.000000  -0.000000  -0.000000   0.000201
   64  FE 1 XXY   0.000000   0.000000  -0.000000  -0.000017  -0.000000
   65  FE 1 XXZ   0.000000   0.000000  -0.000000  -0.000000  -0.000135
   66  FE 1 YYX   0.000074   0.000222  -0.000017  -0.000000  -0.000000
   67  FE 1 YYZ   0.000000   0.000000  -0.000000  -0.000000  -0.000135
   68  FE 1 ZZX   0.000000   0.000000   0.000069  -0.000000  -0.000000
   69  FE 1 ZZY   0.000000   0.000000  -0.000000   0.000069  -0.000000
   70  FE 1 XYZ   0.000000   0.000000  -0.000000  -0.000000  -0.000000
   71  FE 1XXXX  -0.000006  -0.000045  -0.000001  -0.000000  -0.000000
   72  FE 1YYYY  -0.000006  -0.000045   0.000001  -0.000000  -0.000000
   73  FE 1ZZZZ  -0.000015  -0.000120  -0.000000  -0.000000  -0.000000
   74  FE 1XXXY   0.000000   0.000000  -0.000000   0.000001  -0.000000
   75  FE 1XXXZ   0.000000   0.000000  -0.000000  -0.000000   0.000006
   76  FE 1YYYX   0.000000   0.000000  -0.000000   0.000001  -0.000000
   77  FE 1YYYZ   0.000000   0.000000  -0.000000  -0.000000  -0.000000
   78  FE 1ZZZX   0.000000   0.000000  -0.000000  -0.000000  -0.000000
   79  FE 1ZZZY   0.000000   0.000000  -0.000000  -0.000000  -0.000000
   80  FE 1XXYY  -0.000003  -0.000026   0.000000  -0.000000  -0.000000
   81  FE 1XXZZ   0.000013   0.000105   0.000002  -0.000000  -0.000000
   82  FE 1YYZZ   0.000013   0.000105  -0.000002  -0.000000  -0.000000
   83  FE 1XXYZ   0.000000   0.000000  -0.000000  -0.000000  -0.000000
   84  FE 1YYXZ   0.000000   0.000000  -0.000000  -0.000000  -0.000008
   85  FE 1ZZXY   0.000000   0.000000  -0.000000  -0.000002  -0.000000
   86  C  2  S   -0.000015  -0.000042  -0.000011   0.000020  -0.000000
   87  C  2  S   -0.000119  -0.000321  -0.000058   0.000100  -0.000000
   88  C  2  S    0.000320   0.000772   0.000262  -0.000455  -0.000000
   89  C  2  S   -0.000007   0.000157   0.000090  -0.000156  -0.000000
   90  C  2  X   -0.000006  -0.000018   0.000007  -0.000005  -0.000000
   91  C  2  Y    0.000010   0.000031  -0.000005   0.000013  -0.000000
   92  C  2  Z    0.000000   0.000000  -0.000000  -0.000000   0.000004
   93  C  2  X    0.000030   0.000120  -0.000014   0.000035  -0.000000
   94  C  2  Y   -0.000051  -0.000207   0.000035  -0.000054  -0.000000
   95  C  2  Z    0.000000   0.000000  -0.000000  -0.000000   0.000011
   96  C  2  X   -0.000139  -0.000328   0.000133  -0.000127  -0.000000
   97  C  2  Y    0.000241   0.000568  -0.000127   0.000280  -0.000000
   98  C  2  Z    0.000000   0.000000  -0.000000  -0.000000   0.000047
   99  C  2 XX    0.000003   0.000010  -0.000002   0.000000  -0.000000
  100  C  2 YY   -0.000013  -0.000047   0.000007  -0.000010  -0.000000
  101  C  2 ZZ    0.000010   0.000037  -0.000005   0.000009  -0.000000
  102  C  2 XY    0.000015   0.000057  -0.000006   0.000012  -0.000000
  103  C  2 XZ    0.000000   0.000000  -0.000000  -0.000000  -0.000001
  104  C  2 YZ    0.000000   0.000000  -0.000000  -0.000000   0.000002
  105  C  2 XX   -0.000016  -0.000038  -0.000016   0.000032  -0.000000
  106  C  2 YY    0.000078   0.000206   0.000075  -0.000134  -0.000000
  107  C  2 ZZ   -0.000063  -0.000168  -0.000059   0.000102  -0.000000
  108  C  2 XY   -0.000094  -0.000245  -0.000096   0.000163  -0.000000
  109  C  2 XZ    0.000000   0.000000  -0.000000  -0.000000  -0.000016
  110  C  2 YZ    0.000000   0.000000  -0.000000  -0.000000   0.000027
  111  C  2 XXX  -0.000020  -0.000062   0.000015  -0.000024  -0.000000
  112  C  2 YYY  -0.000017  -0.000057   0.000013  -0.000020  -0.000000
  113  C  2 ZZZ   0.000000   0.000000  -0.000000  -0.000000   0.000000
  114  C  2 XXY  -0.000007  -0.000025   0.000004  -0.000010  -0.000000
  115  C  2 XXZ   0.000000   0.000000  -0.000000  -0.000000   0.000001
  116  C  2 YYX   0.000045   0.000142  -0.000031   0.000055  -0.000000
  117  C  2 YYZ   0.000000   0.000000  -0.000000  -0.000000  -0.000001
  118  C  2 ZZX  -0.000017  -0.000059   0.000012  -0.000022  -0.000000
  119  C  2 ZZY   0.000030   0.000102  -0.000022   0.000037  -0.000000
  120  C  2 XYZ   0.000000   0.000000  -0.000000  -0.000000   0.000002
  121  C  3  S   -0.000015  -0.000042  -0.000011  -0.000020  -0.000000
  122  C  3  S   -0.000119  -0.000321  -0.000058  -0.000100  -0.000000
  123  C  3  S    0.000320   0.000772   0.000262   0.000455  -0.000000
  124  C  3  S   -0.000007   0.000157   0.000090   0.000156  -0.000000
  125  C  3  X   -0.000006  -0.000018   0.000007   0.000005  -0.000000
  126  C  3  Y   -0.000010  -0.000031   0.000005   0.000013  -0.000000
  127  C  3  Z    0.000000   0.000000  -0.000000  -0.000000   0.000004
  128  C  3  X    0.000030   0.000120  -0.000014  -0.000035  -0.000000
  129  C  3  Y    0.000051   0.000207  -0.000035  -0.000054  -0.000000
  130  C  3  Z    0.000000   0.000000  -0.000000  -0.000000   0.000011
  131  C  3  X   -0.000139  -0.000328   0.000133   0.000127  -0.000000
  132  C  3  Y   -0.000241  -0.000568   0.000127   0.000280  -0.000000
  133  C  3  Z    0.000000   0.000000  -0.000000  -0.000000   0.000047
  134  C  3 XX    0.000003   0.000010  -0.000002  -0.000000  -0.000000
  135  C  3 YY   -0.000013  -0.000047   0.000007   0.000010  -0.000000
  136  C  3 ZZ    0.000010   0.000037  -0.000005  -0.000009  -0.000000
  137  C  3 XY   -0.000015  -0.000057   0.000006   0.000012  -0.000000
  138  C  3 XZ    0.000000   0.000000  -0.000000  -0.000000  -0.000001
  139  C  3 YZ    0.000000   0.000000  -0.000000  -0.000000  -0.000002
  140  C  3 XX   -0.000016  -0.000038  -0.000016  -0.000032  -0.000000
  141  C  3 YY    0.000078   0.000206   0.000075   0.000134  -0.000000
  142  C  3 ZZ   -0.000063  -0.000168  -0.000059  -0.000102  -0.000000
  143  C  3 XY    0.000094   0.000245   0.000096   0.000163  -0.000000
  144  C  3 XZ    0.000000   0.000000  -0.000000  -0.000000  -0.000016
  145  C  3 YZ    0.000000   0.000000  -0.000000  -0.000000  -0.000027
  146  C  3 XXX  -0.000020  -0.000062   0.000015   0.000024  -0.000000
  147  C  3 YYY   0.000017   0.000057  -0.000013  -0.000020  -0.000000
  148  C  3 ZZZ   0.000000   0.000000  -0.000000  -0.000000   0.000000
  149  C  3 XXY   0.000007   0.000025  -0.000004  -0.000010  -0.000000
  150  C  3 XXZ   0.000000   0.000000  -0.000000  -0.000000   0.000001
  151  C  3 YYX   0.000045   0.000142  -0.000031  -0.000055  -0.000000
  152  C  3 YYZ   0.000000   0.000000  -0.000000  -0.000000  -0.000001
  153  C  3 ZZX  -0.000017  -0.000059   0.000012   0.000022  -0.000000
  154  C  3 ZZY  -0.000030  -0.000102   0.000022   0.000037  -0.000000
  155  C  3 XYZ   0.000000   0.000000  -0.000000  -0.000000  -0.000002
  156  C  4  S   -0.000015  -0.000042   0.000023  -0.000000  -0.000000
  157  C  4  S   -0.000119  -0.000321   0.000116  -0.000000  -0.000000
  158  C  4  S    0.000320   0.000772  -0.000525  -0.000000  -0.000000
  159  C  4  S   -0.000007   0.000157  -0.000180  -0.000000  -0.000000
  160  C  4  X    0.000011   0.000036   0.000015  -0.000000  -0.000000
  161  C  4  Y    0.000000   0.000000  -0.000000   0.000004  -0.000000
  162  C  4  Z    0.000000   0.000000  -0.000000  -0.000000   0.000004
  163  C  4  X   -0.000059  -0.000239  -0.000074  -0.000000  -0.000000
  164  C  4  Y    0.000000   0.000000  -0.000000   0.000006  -0.000000
  165  C  4  Z    0.000000   0.000000  -0.000000  -0.000000   0.000011
  166  C  4  X    0.000278   0.000656   0.000353  -0.000000  -0.000000
  167  C  4  Y    0.000000   0.000000  -0.000000   0.000059  -0.000000
  168  C  4  Z    0.000000   0.000000  -0.000000  -0.000000   0.000047
  169  C  4 XX   -0.000020  -0.000076  -0.000019  -0.000000  -0.000000
  170  C  4 YY    0.000010   0.000039   0.000008  -0.000000  -0.000000
  171  C  4 ZZ    0.000010   0.000037   0.000011  -0.000000  -0.000000
  172  C  4 XY    0.000000   0.000000  -0.000000   0.000002  -0.000000
  173  C  4 XZ    0.000000   0.000000  -0.000000  -0.000000   0.000003
  174  C  4 YZ    0.000000   0.000000  -0.000000  -0.000000  -0.000000
  175  C  4 XX    0.000125   0.000329  -0.000248  -0.000000  -0.000000
  176  C  4 YY   -0.000062  -0.000161   0.000130  -0.000000  -0.000000
  177  C  4 ZZ   -0.000063  -0.000168   0.000118  -0.000000  -0.000000
  178  C  4 XY    0.000000   0.000000  -0.000000  -0.000003  -0.000000
  179  C  4 XZ    0.000000   0.000000  -0.000000  -0.000000   0.000032
  180  C  4 YZ    0.000000   0.000000  -0.000000  -0.000000  -0.000000
  181  C  4 XXX  -0.000049  -0.000161  -0.000070  -0.000000  -0.000000
  182  C  4 YYY   0.000000   0.000000  -0.000000  -0.000001  -0.000000
  183  C  4 ZZZ   0.000000   0.000000  -0.000000  -0.000000   0.000000
  184  C  4 XXY   0.000000   0.000000  -0.000000   0.000002  -0.000000
  185  C  4 XXZ   0.000000   0.000000  -0.000000  -0.000000  -0.000002
  186  C  4 YYX   0.000032   0.000098   0.000044  -0.000000  -0.000000
  187  C  4 YYZ   0.000000   0.000000  -0.000000  -0.000000   0.000001
  188  C  4 ZZX   0.000035   0.000118   0.000050  -0.000000  -0.000000
  189  C  4 ZZY   0.000000   0.000000  -0.000000  -0.000001  -0.000000
  190  C  4 XYZ   0.000000   0.000000  -0.000000  -0.000000  -0.000000
  191  O  5  S   -0.000000  -0.000002   0.000002  -0.000003  -0.000000
  192  O  5  S    0.000009   0.000019   0.000007  -0.000012  -0.000000
  193  O  5  S    0.000011   0.000111  -0.000188   0.000326  -0.000000
  194  O  5  S   -0.000371  -0.000966   0.000101  -0.000175  -0.000000
  195  O  5  X   -0.000000  -0.000003  -0.000002  -0.000006  -0.000000
  196  O  5  Y    0.000000   0.000005  -0.000006   0.000005  -0.000000
  197  O  5  Z    0.000000   0.000000  -0.000000  -0.000000  -0.000001
  198  O  5  X    0.000015   0.000058  -0.000026   0.000045  -0.000000
  199  O  5  Y   -0.000025  -0.000100   0.000045  -0.000078  -0.000000
  200  O  5  Z    0.000000   0.000000  -0.000000  -0.000000  -0.000005
  201  O  5  X   -0.000050  -0.000123  -0.000023  -0.000012  -0.000000
  202  O  5  Y    0.000087   0.000212  -0.000012  -0.000010  -0.000000
  203  O  5  Z    0.000000   0.000000  -0.000000  -0.000000  -0.000037
  204  O  5 XX   -0.000001  -0.000003   0.000002  -0.000001  -0.000000
  205  O  5 YY    0.000004   0.000014  -0.000005   0.000006  -0.000000
  206  O  5 ZZ   -0.000003  -0.000011   0.000003  -0.000006  -0.000000
  207  O  5 XY   -0.000005  -0.000017   0.000004  -0.000009  -0.000000
  208  O  5 XZ    0.000000   0.000000  -0.000000  -0.000000   0.000002
  209  O  5 YZ    0.000000   0.000000  -0.000000  -0.000000  -0.000003
  210  O  5 XX   -0.000002  -0.000006  -0.000006  -0.000003  -0.000000
  211  O  5 YY    0.000010   0.000037   0.000006   0.000003  -0.000000
  212  O  5 ZZ   -0.000009  -0.000032  -0.000000   0.000000  -0.000000
  213  O  5 XY   -0.000012  -0.000043   0.000003   0.000003  -0.000000
  214  O  5 XZ    0.000000   0.000000  -0.000000  -0.000000  -0.000008
  215  O  5 YZ    0.000000   0.000000  -0.000000  -0.000000   0.000014
  216  O  5 XXX  -0.000005  -0.000014   0.000000  -0.000000  -0.000000
  217  O  5 YYY  -0.000004  -0.000013  -0.000001  -0.000001  -0.000000
  218  O  5 ZZZ   0.000000   0.000000  -0.000000  -0.000000   0.000001
  219  O  5 XXY  -0.000002  -0.000006   0.000001   0.000000  -0.000000
  220  O  5 XXZ   0.000000   0.000000  -0.000000  -0.000000  -0.000000
  221  O  5 YYX   0.000011   0.000032  -0.000001   0.000001  -0.000000
  222  O  5 YYZ   0.000000   0.000000  -0.000000  -0.000000  -0.000001
  223  O  5 ZZX  -0.000004  -0.000013   0.000001  -0.000001  -0.000000
  224  O  5 ZZY   0.000007   0.000023  -0.000001   0.000001  -0.000000
  225  O  5 XYZ   0.000000   0.000000  -0.000000  -0.000000   0.000001
  226  O  6  S   -0.000000  -0.000002   0.000002   0.000003  -0.000000
  227  O  6  S    0.000009   0.000019   0.000007   0.000012  -0.000000
  228  O  6  S    0.000011   0.000111  -0.000188  -0.000326  -0.000000
  229  O  6  S   -0.000371  -0.000966   0.000101   0.000175  -0.000000
  230  O  6  X   -0.000000  -0.000003  -0.000002   0.000006  -0.000000
  231  O  6  Y   -0.000000  -0.000005   0.000006   0.000005  -0.000000
  232  O  6  Z    0.000000   0.000000  -0.000000  -0.000000  -0.000001
  233  O  6  X    0.000015   0.000058  -0.000026  -0.000045  -0.000000
  234  O  6  Y    0.000025   0.000100  -0.000045  -0.000078  -0.000000
  235  O  6  Z    0.000000   0.000000  -0.000000  -0.000000  -0.000005
  236  O  6  X   -0.000050  -0.000123  -0.000023   0.000012  -0.000000
  237  O  6  Y   -0.000087  -0.000212   0.000012  -0.000010  -0.000000
  238  O  6  Z    0.000000   0.000000  -0.000000  -0.000000  -0.000037
  239  O  6 XX   -0.000001  -0.000003   0.000002   0.000001  -0.000000
  240  O  6 YY    0.000004   0.000014  -0.000005  -0.000006  -0.000000
  241  O  6 ZZ   -0.000003  -0.000011   0.000003   0.000006  -0.000000
  242  O  6 XY    0.000005   0.000017  -0.000004  -0.000009  -0.000000
  243  O  6 XZ    0.000000   0.000000  -0.000000  -0.000000   0.000002
  244  O  6 YZ    0.000000   0.000000  -0.000000  -0.000000   0.000003
  245  O  6 XX   -0.000002  -0.000006  -0.000006   0.000003  -0.000000
  246  O  6 YY    0.000010   0.000037   0.000006  -0.000003  -0.000000
  247  O  6 ZZ   -0.000009  -0.000032  -0.000000  -0.000000  -0.000000
  248  O  6 XY    0.000012   0.000043  -0.000003   0.000003  -0.000000
  249  O  6 XZ    0.000000   0.000000  -0.000000  -0.000000  -0.000008
  250  O  6 YZ    0.000000   0.000000  -0.000000  -0.000000  -0.000014
  251  O  6 XXX  -0.000005  -0.000014   0.000000   0.000000  -0.000000
  252  O  6 YYY   0.000004   0.000013   0.000001  -0.000001  -0.000000
  253  O  6 ZZZ   0.000000   0.000000  -0.000000  -0.000000   0.000001
  254  O  6 XXY   0.000002   0.000006  -0.000001   0.000000  -0.000000
  255  O  6 XXZ   0.000000   0.000000  -0.000000  -0.000000  -0.000000
  256  O  6 YYX   0.000011   0.000032  -0.000001  -0.000001  -0.000000
  257  O  6 YYZ   0.000000   0.000000  -0.000000  -0.000000  -0.000001
  258  O  6 ZZX  -0.000004  -0.000013   0.000001   0.000001  -0.000000
  259  O  6 ZZY  -0.000007  -0.000023   0.000001   0.000001  -0.000000
  260  O  6 XYZ   0.000000   0.000000  -0.000000  -0.000000  -0.000001
  261  O  7  S   -0.000000  -0.000002  -0.000004  -0.000000  -0.000000
  262  O  7  S    0.000009   0.000019  -0.000013  -0.000000  -0.000000
  263  O  7  S    0.000011   0.000111   0.000377  -0.000000  -0.000000
  264  O  7  S   -0.000371  -0.000966  -0.000202  -0.000000  -0.000000
  265  O  7  X    0.000000   0.000006   0.000008  -0.000000  -0.000000
  266  O  7  Y    0.000000   0.000000  -0.000000  -0.000005  -0.000000
  267  O  7  Z    0.000000   0.000000  -0.000000  -0.000000  -0.000001
  268  O  7  X   -0.000029  -0.000116  -0.000104  -0.000000  -0.000000
  269  O  7  Y    0.000000   0.000000  -0.000000   0.000001  -0.000000
  270  O  7  Z    0.000000   0.000000  -0.000000  -0.000000  -0.000005
  271  O  7  X    0.000100   0.000245  -0.000003  -0.000000  -0.000000
  272  O  7  Y    0.000000   0.000000  -0.000000  -0.000030  -0.000000
  273  O  7  Z    0.000000   0.000000  -0.000000  -0.000000  -0.000037
  274  O  7 XX    0.000007   0.000022   0.000013  -0.000000  -0.000000
  275  O  7 YY   -0.000004  -0.000011  -0.000006  -0.000000  -0.000000
  276  O  7 ZZ   -0.000003  -0.000011  -0.000007  -0.000000  -0.000000
  277  O  7 XY    0.000000   0.000000  -0.000000  -0.000002  -0.000000
  278  O  7 XZ    0.000000   0.000000  -0.000000  -0.000000  -0.000003
  279  O  7 YZ    0.000000   0.000000  -0.000000  -0.000000  -0.000000
  280  O  7 XX    0.000016   0.000059  -0.000001  -0.000000  -0.000000
  281  O  7 YY   -0.000008  -0.000027   0.000001  -0.000000  -0.000000
  282  O  7 ZZ   -0.000009  -0.000032   0.000000  -0.000000  -0.000000
  283  O  7 XY    0.000000   0.000000  -0.000000   0.000008  -0.000000
  284  O  7 XZ    0.000000   0.000000  -0.000000  -0.000000   0.000016
  285  O  7 YZ    0.000000   0.000000  -0.000000  -0.000000  -0.000000
  286  O  7 XXX  -0.000012  -0.000036  -0.000002  -0.000000  -0.000000
  287  O  7 YYY   0.000000   0.000000  -0.000000   0.000001  -0.000000
  288  O  7 ZZZ   0.000000   0.000000  -0.000000  -0.000000   0.000001
  289  O  7 XXY   0.000000   0.000000  -0.000000  -0.000002  -0.000000
  290  O  7 XXZ   0.000000   0.000000  -0.000000  -0.000000  -0.000002
  291  O  7 YYX   0.000008   0.000022   0.000001  -0.000000  -0.000000
  292  O  7 YYZ   0.000000   0.000000  -0.000000  -0.000000   0.000001
  293  O  7 ZZX   0.000008   0.000026   0.000002  -0.000000  -0.000000
  294  O  7 ZZY   0.000000   0.000000  -0.000000   0.000000  -0.000000
  295  O  7 XYZ   0.000000   0.000000  -0.000000  -0.000000  -0.000000
  296  C  8  S   -0.000007  -0.000007  -0.000000  -0.000000  -0.000051
  297  C  8  S   -0.000063  -0.000227  -0.000000  -0.000000  -0.000299
  298  C  8  S    0.000091   0.000047  -0.000000  -0.000000   0.001104
  299  C  8  S   -0.000033  -0.000326  -0.000000  -0.000000  -0.000320
  300  C  8  X    0.000000   0.000000   0.000009  -0.000000  -0.000000
  301  C  8  Y    0.000000   0.000000  -0.000000   0.000009  -0.000000
  302  C  8  Z   -0.000006  -0.000051  -0.000000  -0.000000  -0.000015
  303  C  8  X    0.000000   0.000000  -0.000015  -0.000000  -0.000000
  304  C  8  Y    0.000000   0.000000  -0.000000  -0.000015  -0.000000
  305  C  8  Z    0.000027   0.000195  -0.000000  -0.000000   0.000065
  306  C  8  X    0.000000   0.000000   0.000013  -0.000000  -0.000000
  307  C  8  Y    0.000000   0.000000  -0.000000   0.000013  -0.000000
  308  C  8  Z   -0.000202  -0.001007  -0.000000  -0.000000  -0.000688
  309  C  8 XX    0.000009   0.000045  -0.000000  -0.000000   0.000002
  310  C  8 YY    0.000009   0.000045   0.000000  -0.000000   0.000002
  311  C  8 ZZ   -0.000019  -0.000089  -0.000000  -0.000000  -0.000003
  312  C  8 XY    0.000000   0.000000  -0.000000   0.000000  -0.000000
  313  C  8 XZ    0.000000   0.000000   0.000008  -0.000000  -0.000000
  314  C  8 YZ    0.000000   0.000000  -0.000000   0.000008  -0.000000
  315  C  8 XX   -0.000026  -0.000046  -0.000002  -0.000000  -0.000214
  316  C  8 YY   -0.000026  -0.000046   0.000002  -0.000000  -0.000214
  317  C  8 ZZ    0.000053   0.000091  -0.000000  -0.000000   0.000428
  318  C  8 XY    0.000000   0.000000  -0.000000   0.000002  -0.000000
  319  C  8 XZ    0.000000   0.000000  -0.000045  -0.000000  -0.000000
  320  C  8 YZ    0.000000   0.000000  -0.000000  -0.000045  -0.000000
  321  C  8 XXX   0.000000   0.000000   0.000012  -0.000000   0.000000
  322  C  8 YYY   0.000000   0.000000  -0.000000   0.000012  -0.000000
  323  C  8 ZZZ   0.000040   0.000203  -0.000000  -0.000000   0.000033
  324  C  8 XXY   0.000000   0.000000  -0.000000   0.000005  -0.000000
  325  C  8 XXZ  -0.000027  -0.000136  -0.000004  -0.000000  -0.000022
  326  C  8 YYX  -0.000000  -0.000000   0.000005  -0.000000  -0.000000
  327  C  8 YYZ  -0.000027  -0.000136   0.000004  -0.000000  -0.000022
  328  C  8 ZZX   0.000000   0.000000  -0.000022  -0.000000  -0.000000
  329  C  8 ZZY   0.000000   0.000000  -0.000000  -0.000022  -0.000000
  330  C  8 XYZ   0.000000   0.000000  -0.000000   0.000005  -0.000000
  331  C  9  S   -0.000007  -0.000007  -0.000000  -0.000000   0.000051
  332  C  9  S   -0.000063  -0.000227  -0.000000  -0.000000   0.000299
  333  C  9  S    0.000091   0.000047  -0.000000  -0.000000  -0.001104
  334  C  9  S   -0.000033  -0.000326  -0.000000  -0.000000   0.000320
  335  C  9  X    0.000000   0.000000   0.000009  -0.000000  -0.000000
  336  C  9  Y    0.000000   0.000000  -0.000000   0.000009  -0.000000
  337  C  9  Z    0.000006   0.000051  -0.000000  -0.000000  -0.000015
  338  C  9  X    0.000000   0.000000  -0.000015  -0.000000  -0.000000
  339  C  9  Y    0.000000   0.000000  -0.000000  -0.000015  -0.000000
  340  C  9  Z   -0.000027  -0.000195  -0.000000  -0.000000   0.000065
  341  C  9  X    0.000000   0.000000   0.000013  -0.000000  -0.000000
  342  C  9  Y    0.000000   0.000000  -0.000000   0.000013  -0.000000
  343  C  9  Z    0.000202   0.001007  -0.000000  -0.000000  -0.000688
  344  C  9 XX    0.000009   0.000045  -0.000000  -0.000000  -0.000002
  345  C  9 YY    0.000009   0.000045   0.000000  -0.000000  -0.000002
  346  C  9 ZZ   -0.000019  -0.000089  -0.000000  -0.000000   0.000003
  347  C  9 XY    0.000000   0.000000  -0.000000   0.000000  -0.000000
  348  C  9 XZ    0.000000   0.000000  -0.000008  -0.000000  -0.000000
  349  C  9 YZ    0.000000   0.000000  -0.000000  -0.000008  -0.000000
  350  C  9 XX   -0.000026  -0.000046  -0.000002  -0.000000   0.000214
  351  C  9 YY   -0.000026  -0.000046   0.000002  -0.000000   0.000214
  352  C  9 ZZ    0.000053   0.000091  -0.000000  -0.000000  -0.000428
  353  C  9 XY    0.000000   0.000000  -0.000000   0.000002  -0.000000
  354  C  9 XZ    0.000000   0.000000   0.000045  -0.000000  -0.000000
  355  C  9 YZ    0.000000   0.000000  -0.000000   0.000045  -0.000000
  356  C  9 XXX   0.000000   0.000000   0.000012  -0.000000  -0.000000
  357  C  9 YYY   0.000000   0.000000  -0.000000   0.000012  -0.000000
  358  C  9 ZZZ  -0.000040  -0.000203  -0.000000  -0.000000   0.000033
  359  C  9 XXY   0.000000   0.000000  -0.000000   0.000005  -0.000000
  360  C  9 XXZ   0.000027   0.000136   0.000004  -0.000000  -0.000022
  361  C  9 YYX  -0.000000  -0.000000   0.000005  -0.000000   0.000000
  362  C  9 YYZ   0.000027   0.000136  -0.000004  -0.000000  -0.000022
  363  C  9 ZZX   0.000000   0.000000  -0.000022  -0.000000  -0.000000
  364  C  9 ZZY   0.000000   0.000000  -0.000000  -0.000022  -0.000000
  365  C  9 XYZ   0.000000   0.000000  -0.000000  -0.000005  -0.000000
  366  O 10  S   -0.000000  -0.000007  -0.000000  -0.000000   0.000003
  367  O 10  S    0.000007   0.000025  -0.000000  -0.000000   0.000024
  368  O 10  S    0.000033   0.000360  -0.000000  -0.000000  -0.000268
  369  O 10  S   -0.000216  -0.000917  -0.000000  -0.000000  -0.000810
  370  O 10  X    0.000000   0.000000  -0.000003  -0.000000  -0.000000
  371  O 10  Y    0.000000   0.000000  -0.000000  -0.000003  -0.000000
  372  O 10  Z   -0.000000  -0.000002  -0.000000  -0.000000   0.000004
  373  O 10  X    0.000000   0.000000   0.000002  -0.000000  -0.000000
  374  O 10  Y    0.000000   0.000000  -0.000000   0.000002  -0.000000
  375  O 10  Z    0.000027   0.000193  -0.000000  -0.000000  -0.000030
  376  O 10  X    0.000000   0.000000  -0.000025  -0.000000  -0.000000
  377  O 10  Y    0.000000   0.000000  -0.000000  -0.000025  -0.000000
  378  O 10  Z   -0.000048  -0.000158  -0.000000  -0.000000  -0.000264
  379  O 10 XX   -0.000003  -0.000015   0.000000  -0.000000  -0.000001
  380  O 10 YY   -0.000003  -0.000015  -0.000000  -0.000000  -0.000001
  381  O 10 ZZ    0.000006   0.000030  -0.000000  -0.000000   0.000002
  382  O 10 XY    0.000000   0.000000  -0.000000  -0.000000  -0.000000
  383  O 10 XZ    0.000000   0.000000   0.000004  -0.000000  -0.000000
  384  O 10 YZ    0.000000   0.000000  -0.000000   0.000004  -0.000000
  385  O 10 XX   -0.000007  -0.000032  -0.000001  -0.000000  -0.000009
  386  O 10 YY   -0.000007  -0.000032   0.000001  -0.000000  -0.000009
  387  O 10 ZZ    0.000013   0.000064  -0.000000  -0.000000   0.000018
  388  O 10 XY    0.000000   0.000000  -0.000000   0.000001  -0.000000
  389  O 10 XZ    0.000000   0.000000  -0.000005  -0.000000  -0.000000
  390  O 10 YZ    0.000000   0.000000  -0.000000  -0.000005  -0.000000
  391  O 10 XXX  -0.000000  -0.000000  -0.000003  -0.000000   0.000000
  392  O 10 YYY   0.000000   0.000000  -0.000000  -0.000003  -0.000000
  393  O 10 ZZZ   0.000009   0.000037  -0.000000  -0.000000   0.000013
  394  O 10 XXY   0.000000   0.000000  -0.000000  -0.000001  -0.000000
  395  O 10 XXZ  -0.000006  -0.000025  -0.000001  -0.000000  -0.000009
  396  O 10 YYX   0.000000   0.000000  -0.000001  -0.000000  -0.000000
  397  O 10 YYZ  -0.000006  -0.000025   0.000001  -0.000000  -0.000009
  398  O 10 ZZX   0.000000   0.000000   0.000005  -0.000000  -0.000000
  399  O 10 ZZY   0.000000   0.000000  -0.000000   0.000005  -0.000000
  400  O 10 XYZ   0.000000   0.000000  -0.000000   0.000001  -0.000000
  401  O 11  S   -0.000000  -0.000007  -0.000000  -0.000000  -0.000003
  402  O 11  S    0.000007   0.000025  -0.000000  -0.000000  -0.000024
  403  O 11  S    0.000033   0.000360  -0.000000  -0.000000   0.000268
  404  O 11  S   -0.000216  -0.000917  -0.000000  -0.000000   0.000810
  405  O 11  X    0.000000   0.000000  -0.000003  -0.000000  -0.000000
  406  O 11  Y    0.000000   0.000000  -0.000000  -0.000003  -0.000000
  407  O 11  Z    0.000000   0.000002  -0.000000  -0.000000   0.000004
  408  O 11  X    0.000000   0.000000   0.000002  -0.000000  -0.000000
  409  O 11  Y    0.000000   0.000000  -0.000000   0.000002  -0.000000
  410  O 11  Z   -0.000027  -0.000193  -0.000000  -0.000000  -0.000030
  411  O 11  X    0.000000   0.000000  -0.000025  -0.000000  -0.000000
  412  O 11  Y    0.000000   0.000000  -0.000000  -0.000025  -0.000000
  413  O 11  Z    0.000048   0.000158  -0.000000  -0.000000  -0.000264
  414  O 11 XX   -0.000003  -0.000015   0.000000  -0.000000   0.000001
  415  O 11 YY   -0.000003  -0.000015  -0.000000  -0.000000   0.000001
  416  O 11 ZZ    0.000006   0.000030  -0.000000  -0.000000  -0.000002
  417  O 11 XY    0.000000   0.000000  -0.000000  -0.000000  -0.000000
  418  O 11 XZ    0.000000   0.000000  -0.000004  -0.000000  -0.000000
  419  O 11 YZ    0.000000   0.000000  -0.000000  -0.000004  -0.000000
  420  O 11 XX   -0.000007  -0.000032  -0.000001  -0.000000   0.000009
  421  O 11 YY   -0.000007  -0.000032   0.000001  -0.000000   0.000009
  422  O 11 ZZ    0.000013   0.000064  -0.000000  -0.000000  -0.000018
  423  O 11 XY    0.000000   0.000000  -0.000000   0.000001  -0.000000
  424  O 11 XZ    0.000000   0.000000   0.000005  -0.000000  -0.000000
  425  O 11 YZ    0.000000   0.000000  -0.000000   0.000005  -0.000000
  426  O 11 XXX  -0.000000  -0.000000  -0.000003  -0.000000  -0.000000
  427  O 11 YYY   0.000000   0.000000  -0.000000  -0.000003  -0.000000
  428  O 11 ZZZ  -0.000009  -0.000037  -0.000000  -0.000000   0.000013
  429  O 11 XXY   0.000000   0.000000  -0.000000  -0.000001  -0.000000
  430  O 11 XXZ   0.000006   0.000025   0.000001  -0.000000  -0.000009
  431  O 11 YYX   0.000000   0.000000  -0.000001  -0.000000   0.000000
  432  O 11 YYZ   0.000006   0.000025  -0.000001  -0.000000  -0.000009
  433  O 11 ZZX   0.000000   0.000000   0.000005  -0.000000  -0.000000
  434  O 11 ZZY   0.000000   0.000000  -0.000000   0.000005  -0.000000
  435  O 11 XYZ   0.000000   0.000000  -0.000000  -0.000001  -0.000000

                      6          7          8          9         10
                  -20.8806   -20.8806   -20.8806   -20.8633   -20.8633
                     A1'        E'         E'         A1'        A2" 
    1  FE 1  S    0.000018  -0.000000   0.000000   0.000015   0.000000
    2  FE 1  S    0.000180  -0.000000   0.000000   0.000150   0.000000
    3  FE 1  S    0.000529  -0.000000   0.000000   0.000430   0.000000
    4  FE 1  S   -0.000214  -0.000000   0.000000  -0.000191   0.000000
    5  FE 1  S   -0.001700  -0.000000   0.000000  -0.001293   0.000000
    6  FE 1  S    0.002575  -0.000000   0.000000   0.002326   0.000000
    7  FE 1  S   -0.006565  -0.000000   0.000000  -0.006121   0.000000
    8  FE 1  S   -0.001064  -0.000000   0.000000  -0.001268   0.000000
    9  FE 1  X   -0.000000  -0.000004   0.000000  -0.000000   0.000000
   10  FE 1  Y   -0.000000  -0.000000   0.000004  -0.000000   0.000000
   11  FE 1  Z   -0.000000  -0.000000   0.000000  -0.000000   0.000003
   12  FE 1  X   -0.000000   0.000030   0.000000  -0.000000   0.000000
   13  FE 1  Y   -0.000000  -0.000000  -0.000030  -0.000000   0.000000
   14  FE 1  Z   -0.000000  -0.000000   0.000000  -0.000000  -0.000017
   15  FE 1  X   -0.000000  -0.000022   0.000000  -0.000000   0.000000
   16  FE 1  Y   -0.000000  -0.000000   0.000022  -0.000000   0.000000
   17  FE 1  Z   -0.000000  -0.000000   0.000000  -0.000000  -0.000026
   18  FE 1  X   -0.000000  -0.000410   0.000000  -0.000000   0.000000
   19  FE 1  Y   -0.000000  -0.000000   0.000410  -0.000000   0.000000
   20  FE 1  Z   -0.000000  -0.000000   0.000000  -0.000000   0.000437
   21  FE 1  X   -0.000000   0.000827   0.000000  -0.000000   0.000000
   22  FE 1  Y   -0.000000  -0.000000  -0.000827  -0.000000   0.000000
   23  FE 1  Z   -0.000000  -0.000000   0.000000  -0.000000  -0.000502
   24  FE 1  X   -0.000000   0.001647   0.000000  -0.000000   0.000000
   25  FE 1  Y   -0.000000  -0.000000  -0.001647  -0.000000   0.000000
   26  FE 1  Z   -0.000000  -0.000000   0.000000  -0.000000  -0.004100
   27  FE 1 XX    0.000027   0.000058   0.000000  -0.000047   0.000000
   28  FE 1 YY    0.000027  -0.000058   0.000000  -0.000047   0.000000
   29  FE 1 ZZ   -0.000054  -0.000000   0.000000   0.000093   0.000000
   30  FE 1 XY   -0.000000  -0.000000   0.000067  -0.000000   0.000000
   31  FE 1 XZ   -0.000000  -0.000000   0.000000  -0.000000   0.000000
   32  FE 1 YZ   -0.000000  -0.000000   0.000000  -0.000000   0.000000
   33  FE 1 XX   -0.000088  -0.000200   0.000000   0.000157   0.000000
   34  FE 1 YY   -0.000088   0.000200   0.000000   0.000157   0.000000
   35  FE 1 ZZ    0.000175  -0.000000   0.000000  -0.000315   0.000000
   36  FE 1 XY   -0.000000  -0.000000  -0.000231  -0.000000   0.000000
   37  FE 1 XZ   -0.000000  -0.000000   0.000000  -0.000000   0.000000
   38  FE 1 YZ   -0.000000  -0.000000   0.000000  -0.000000   0.000000
   39  FE 1 XX    0.000100   0.000577   0.000000  -0.000617   0.000000
   40  FE 1 YY    0.000100  -0.000577   0.000000  -0.000617   0.000000
   41  FE 1 ZZ   -0.000200  -0.000000   0.000000   0.001235   0.000000
   42  FE 1 XY   -0.000000  -0.000000   0.000666  -0.000000   0.000000
   43  FE 1 XZ   -0.000000  -0.000000   0.000000  -0.000000   0.000000
   44  FE 1 YZ   -0.000000  -0.000000   0.000000  -0.000000   0.000000
   45  FE 1 XX    0.000336  -0.000068   0.000000   0.000990   0.000000
   46  FE 1 YY    0.000336   0.000068   0.000000   0.000990   0.000000
   47  FE 1 ZZ   -0.000672  -0.000000   0.000000  -0.001980   0.000000
   48  FE 1 XY   -0.000000  -0.000000  -0.000079  -0.000000   0.000000
   49  FE 1 XZ   -0.000000  -0.000000   0.000000  -0.000000   0.000000
   50  FE 1 YZ   -0.000000  -0.000000   0.000000  -0.000000   0.000000
   51  FE 1 XXX  -0.000070  -0.000026   0.000000   0.000010   0.000000
   52  FE 1 YYY  -0.000000  -0.000000   0.000026  -0.000000   0.000000
   53  FE 1 ZZZ  -0.000000  -0.000000   0.000000  -0.000000   0.000087
   54  FE 1 XXY  -0.000000  -0.000000   0.000012  -0.000000   0.000000
   55  FE 1 XXZ  -0.000000  -0.000000   0.000000  -0.000000  -0.000058
   56  FE 1 YYX   0.000094  -0.000012   0.000000  -0.000013   0.000000
   57  FE 1 YYZ  -0.000000  -0.000000   0.000000  -0.000000  -0.000058
   58  FE 1 ZZX  -0.000000   0.000047   0.000000  -0.000000   0.000000
   59  FE 1 ZZY  -0.000000  -0.000000  -0.000047  -0.000000   0.000000
   60  FE 1 XYZ  -0.000000  -0.000000   0.000000  -0.000000   0.000000
   61  FE 1 XXX   0.000385   0.000159   0.000000  -0.000045   0.000000
   62  FE 1 YYY  -0.000000  -0.000000  -0.000159  -0.000000   0.000000
   63  FE 1 ZZZ  -0.000000  -0.000000   0.000000  -0.000000  -0.000450
   64  FE 1 XXY  -0.000000  -0.000000  -0.000071  -0.000000   0.000000
   65  FE 1 XXZ  -0.000000  -0.000000   0.000000  -0.000000   0.000302
   66  FE 1 YYX  -0.000516   0.000071   0.000000   0.000061   0.000000
   67  FE 1 YYZ  -0.000000  -0.000000   0.000000  -0.000000   0.000302
   68  FE 1 ZZX  -0.000000  -0.000285   0.000000  -0.000000   0.000000
   69  FE 1 ZZY  -0.000000  -0.000000   0.000285  -0.000000   0.000000
   70  FE 1 XYZ  -0.000000  -0.000000   0.000000  -0.000000   0.000000
   71  FE 1XXXX   0.000022   0.000143   0.000000   0.000050   0.000000
   72  FE 1YYYY   0.000022   0.000034   0.000000   0.000050   0.000000
   73  FE 1ZZZZ   0.000058  -0.000000   0.000000   0.000132   0.000000
   74  FE 1XXXY  -0.000000  -0.000000  -0.000093  -0.000000   0.000000
   75  FE 1XXXZ  -0.000000  -0.000000   0.000000  -0.000000  -0.000007
   76  FE 1YYYX  -0.000000  -0.000000   0.000175  -0.000000   0.000000
   77  FE 1YYYZ  -0.000000  -0.000000   0.000000  -0.000000   0.000000
   78  FE 1ZZZX  -0.000000  -0.000000   0.000000  -0.000000   0.000000
   79  FE 1ZZZY  -0.000000  -0.000000   0.000000  -0.000000   0.000000
   80  FE 1XXYY   0.000013  -0.000155   0.000000   0.000029   0.000000
   81  FE 1XXZZ  -0.000051  -0.000096   0.000000  -0.000116   0.000000
   82  FE 1YYZZ  -0.000051   0.000096   0.000000  -0.000116   0.000000
   83  FE 1XXYZ  -0.000000  -0.000000   0.000000  -0.000000   0.000000
   84  FE 1YYXZ  -0.000000  -0.000000   0.000000  -0.000000   0.000009
   85  FE 1ZZXY  -0.000000  -0.000000  -0.000110  -0.000000   0.000000
   86  C  2  S   -0.000122   0.000065   0.000113   0.000005   0.000000
   87  C  2  S    0.000192  -0.000247  -0.000429   0.000041   0.000000
   88  C  2  S    0.006553  -0.004797  -0.008308  -0.000769   0.000000
   89  C  2  S    0.001334   0.000356   0.000617   0.001142   0.000000
   90  C  2  X    0.000047  -0.000024  -0.000039  -0.000010   0.000000
   91  C  2  Y   -0.000081   0.000039   0.000069   0.000017   0.000000
   92  C  2  Z   -0.000000  -0.000000   0.000000  -0.000000  -0.000009
   93  C  2  X   -0.002283   0.001508   0.002618   0.000125   0.000000
   94  C  2  Y    0.003955  -0.002618  -0.004531  -0.000217   0.000000
   95  C  2  Z   -0.000000  -0.000000   0.000000  -0.000000  -0.000021
   96  C  2  X   -0.000381   0.001153   0.002139   0.000789   0.000000
   97  C  2  Y    0.000660  -0.002139  -0.003623  -0.001366   0.000000
   98  C  2  Z   -0.000000  -0.000000   0.000000  -0.000000  -0.000188
   99  C  2 XX   -0.000118   0.000067   0.000134  -0.000002   0.000000
  100  C  2 YY    0.000523  -0.000378  -0.000672  -0.000014   0.000000
  101  C  2 ZZ   -0.000405   0.000311   0.000538   0.000016   0.000000
  102  C  2 XY   -0.000642   0.000465   0.000794   0.000012   0.000000
  103  C  2 XZ   -0.000000  -0.000000   0.000000  -0.000000  -0.000011
  104  C  2 YZ   -0.000000  -0.000000   0.000000  -0.000000   0.000020
  105  C  2 XX   -0.000190   0.000155   0.000221   0.000006   0.000000
  106  C  2 YY    0.001232  -0.000654  -0.001085  -0.000038   0.000000
  107  C  2 ZZ   -0.001042   0.000499   0.000864   0.000032   0.000000
  108  C  2 XY   -0.001422   0.000754   0.001337   0.000043   0.000000
  109  C  2 XZ   -0.000000  -0.000000   0.000000  -0.000000   0.000078
  110  C  2 YZ   -0.000000  -0.000000   0.000000  -0.000000  -0.000135
  111  C  2 XXX   0.000427  -0.000258  -0.000461   0.000001   0.000000
  112  C  2 YYY   0.000310  -0.000180  -0.000368  -0.000022   0.000000
  113  C  2 ZZZ  -0.000000  -0.000000   0.000000  -0.000000   0.000016
  114  C  2 XXY   0.000139  -0.000118  -0.000143  -0.000010   0.000000
  115  C  2 XXZ  -0.000000  -0.000000   0.000000  -0.000000  -0.000011
  116  C  2 YYX  -0.000893   0.000568   0.000978   0.000022   0.000000
  117  C  2 YYZ  -0.000000  -0.000000   0.000000  -0.000000  -0.000011
  118  C  2 ZZX   0.000320  -0.000221  -0.000359  -0.000023   0.000000
  119  C  2 ZZY  -0.000554   0.000359   0.000636   0.000040   0.000000
  120  C  2 XYZ  -0.000000  -0.000000   0.000000  -0.000000   0.000001
  121  C  3  S   -0.000122   0.000065  -0.000113   0.000005   0.000000
  122  C  3  S    0.000192  -0.000247   0.000429   0.000041   0.000000
  123  C  3  S    0.006553  -0.004797   0.008308  -0.000769   0.000000
  124  C  3  S    0.001334   0.000356  -0.000617   0.001142   0.000000
  125  C  3  X    0.000047  -0.000024   0.000039  -0.000010   0.000000
  126  C  3  Y    0.000081  -0.000039   0.000069  -0.000017   0.000000
  127  C  3  Z   -0.000000  -0.000000   0.000000  -0.000000  -0.000009
  128  C  3  X   -0.002283   0.001508  -0.002618   0.000125   0.000000
  129  C  3  Y   -0.003955   0.002618  -0.004531   0.000217   0.000000
  130  C  3  Z   -0.000000  -0.000000   0.000000  -0.000000  -0.000021
  131  C  3  X   -0.000381   0.001153  -0.002139   0.000789   0.000000
  132  C  3  Y   -0.000660   0.002139  -0.003623   0.001366   0.000000
  133  C  3  Z   -0.000000  -0.000000   0.000000  -0.000000  -0.000188
  134  C  3 XX   -0.000118   0.000067  -0.000134  -0.000002   0.000000
[...]
                   Z  0.00069116 -0.00071224  0.00001814 -0.00200152 -0.06211318
  8   C            X -0.00928997 -0.04086819 -0.00000811  0.00424941  0.14440403
                   Y -0.04064649  0.00929006  0.00063823  0.14450864 -0.00422253
                   Z -0.00022061 -0.00032236  0.00023098  0.00014981 -0.00007807
  9   C            X -0.00762847 -0.04203736  0.00001217 -0.00359724 -0.14415704
                   Y -0.04218491  0.00760784 -0.00063887 -0.14413891  0.00359876
                   Z -0.00015726  0.00001807 -0.00013675  0.00004702 -0.00006900
 10   O            X  0.00478047  0.02171591  0.00000314 -0.00187475 -0.06726386
                   Y  0.02169733 -0.00479339 -0.00029832 -0.06721153  0.00189328
                   Z -0.00021222 -0.00031546  0.00022984  0.00014479 -0.00007072
 11   O            X  0.00399148  0.02215902 -0.00000017  0.00156228  0.06717928
                   Y  0.02246071 -0.00400338  0.00029355  0.06705721 -0.00158872
                   Z -0.00014728  0.00002395 -0.00013857  0.00004150 -0.00006122

 TRANS. SAYVETZ    X  0.00129447  0.01647204  0.00009783  0.00024796 -0.00168289
                   Y  0.02522323 -0.00161493  0.00002494 -0.00191681 -0.00052278
                   Z -0.00008088 -0.00112734  0.00217412  0.00159403 -0.00070860
               TOTAL  0.02525655  0.01658936  0.00217646  0.00250531  0.00189935

   ROT. SAYVETZ    X -0.06896105 -0.04019059 -0.00046069 -0.09188821  0.01255569
                   Y -0.04086819  0.05092372  0.00069154  0.00745241  0.10713629
                   Z -0.00044727  0.00015665  0.00778975 -0.00140989  0.00005333
               TOTAL  0.08016255  0.06487321  0.00783394  0.09220070  0.10786952

                           21          22          23          24          25
       FREQUENCY:       279.14      301.66      301.67      404.15      404.17  
        SYMMETRY:         A1'         E'          E'          E'          E'  
    REDUCED MASS:     14.04814    17.24552    17.24573    12.68277    12.68239
    IR INTENSITY:      0.00049     0.23284     0.23281     0.08080     0.08084

  1   FE           X -0.00022113  0.00154695  0.07618657 -0.01081913 -0.01821187
                   Y -0.00000218  0.07618375 -0.00154690 -0.01822062  0.01082337
                   Z  0.00094336  0.00002022  0.00001999 -0.00000213  0.00000049
  2   C            X  0.02969872 -0.03475395 -0.12651383  0.04102791 -0.00405301
                   Y -0.04920853 -0.09086508 -0.03064211 -0.00300243  0.04513860
                   Z  0.00047978 -0.00001943  0.00000677 -0.00029782  0.00001343
  3   C            X  0.02934342  0.02960279 -0.12786752 -0.02315996  0.03400646
                   Y  0.04959517 -0.08949038  0.03425938 -0.04105552 -0.01906856
                   Z  0.00053996 -0.00001073  0.00003436  0.00016654  0.00018538
  4   C            X -0.05705606 -0.00144250 -0.07187946 -0.02402149 -0.04050499
                   Y -0.00029071 -0.14591280  0.00297763  0.03356994 -0.01993090
                   Z  0.00054954  0.00002646 -0.00003344  0.00013119 -0.00019998
  5   O            X  0.02934162  0.05512159  0.02086441  0.00510591 -0.02635016
                   Y -0.05169941 -0.04023184  0.05519186 -0.02589434  0.03609068
                   Z  0.00091532 -0.00002634  0.00002515  0.00011041 -0.00003443
  6   O            X  0.02960527 -0.05419248  0.02305903 -0.02556471 -0.00819300
                   Y  0.05173395 -0.04239366 -0.05357439 -0.04405223  0.00534179
                   Z  0.00088881  0.00004008  0.00000971 -0.00008591 -0.00005148
  7   O            X -0.05903091 -0.00146771 -0.07315842 -0.02595778 -0.04377148
                   Y  0.00011823  0.05335741 -0.00109024 -0.00841239  0.00499165
                   Z  0.00088219 -0.00001293 -0.00002396 -0.00001841  0.00009229
  8   C            X -0.00007169  0.00020345  0.01090320  0.09128369  0.15441963
                   Y -0.00009234  0.01095657 -0.00019005  0.15443381 -0.09129718
                   Z  0.11292425  0.00001954  0.00054238  0.00002452 -0.00009618
  9   C            X -0.00016493  0.00018475  0.01164586  0.09151194  0.15396963
                   Y -0.00003387  0.01165534 -0.00018426  0.15390118 -0.09148046
                   Z -0.10984418 -0.00005418 -0.00054895 -0.00001072  0.00010491
 10   O            X -0.00044345 -0.00014181 -0.00442701 -0.02417505 -0.04082092
                   Y  0.00006232 -0.00441981  0.00014028 -0.04085925  0.02419789
                   Z  0.11543753  0.00002151  0.00055942  0.00003232 -0.00010251
 11   O            X -0.00061849 -0.00005865 -0.00473130 -0.02421521 -0.04075128
                   Y  0.00004972 -0.00471129  0.00006915 -0.04076280  0.02422387
                   Z -0.11218099 -0.00005539 -0.00056572 -0.00001810  0.00011145

 TRANS. SAYVETZ    X -0.00970480  0.00024177  0.00285022 -0.00188895 -0.00200184
                   Y  0.00375036  0.00326270 -0.00009589 -0.00388703  0.00279359
                   Z  0.20361449  0.00014188  0.00120547  0.00037002  0.00036305
               TOTAL  0.20388013  0.00327472  0.00309614  0.00433751  0.00345591

   ROT. SAYVETZ    X -0.00170756 -0.01015781  0.00670370  0.01276720  0.00033590
                   Y -0.02095197  0.00705318  0.01157326  0.00032754 -0.01300944
                   Z -0.00537590  0.00011252  0.00000107  0.00043706 -0.00025884
               TOTAL  0.02169796  0.01236693  0.01337460  0.01277887  0.01301635

                           26          27          28          29          30
       FREQUENCY:       438.63      438.63      854.18     2091.90     2133.04  
        SYMMETRY:         E''         E''         A2"         A1'         E'  
    REDUCED MASS:     12.23570    12.23557    12.93583    13.42770    13.41767
    IR INTENSITY:      0.00000     0.00000    49.99528     0.00000     4.06733

  1   FE           X -0.00012108  0.00009241 -0.00000035  0.00000340 -0.00006611
                   Y  0.00009231  0.00012808 -0.00000012  0.00000003 -0.00001461
                   Z -0.00000288 -0.00000614 -0.02876531  0.00000108  0.00000746
  2   C            X  0.00015576  0.00003050  0.00013285 -0.01698254  0.02685734
                   Y  0.00001673 -0.00002701 -0.00023636  0.02941805 -0.04618286
                   Z -0.10571358 -0.14678006  0.14883289  0.00002319 -0.00002430
  3   C            X  0.00004152  0.00009275  0.00013880 -0.01698617  0.06072231
                   Y -0.00001268 -0.00014672  0.00023306 -0.02941784  0.10491536
                   Z -0.07425840  0.16494844  0.14883193  0.00002329 -0.00003082
  4   C            X  0.00010103 -0.00002588 -0.00027018  0.03393113  0.17470464
                   Y  0.00010071 -0.00014691  0.00000347 -0.00000158  0.00003832
                   Z  0.17997111 -0.01815491  0.14883318  0.00002298 -0.00002145
  5   O            X -0.00000433  0.00002639  0.00014573  0.01317943 -0.01980332
                   Y -0.00007508 -0.00003264 -0.00025238 -0.02283081  0.03432351
                   Z  0.02802131  0.03894846 -0.03165508 -0.00000192  0.00000539
  6   O            X -0.00001101 -0.00007576  0.00014560  0.01318277 -0.04494932
                   Y  0.00002306 -0.00005112  0.00025269  0.02282999 -0.07787240
                   Z  0.01972443 -0.04374102 -0.03165495 -0.00000197  0.00000538
  7   O            X  0.00010565 -0.00002251 -0.00029107 -0.02633588 -0.12958551
                   Y -0.00002037  0.00004663 -0.00000017  0.00000165  0.00000263
                   Z -0.04774051  0.00478830 -0.03165531 -0.00000192  0.00000533
  8   C            X -0.11725756  0.01115130  0.00000457 -0.00000155 -0.00220794
                   Y  0.01114594  0.11718817 -0.00000240  0.00000696 -0.00049336
                   Z  0.00000464  0.00000965 -0.02217963  0.14905949  0.00023441
  9   C            X  0.11753411 -0.01180238  0.00000652 -0.00000141 -0.00220523
                   Y -0.01180143 -0.11760558  0.00000396  0.00000645 -0.00049362
                   Z  0.00000634  0.00001283 -0.02285823 -0.14892935  0.00020518
 10   O            X  0.02599826 -0.00248350  0.00000150 -0.00000707  0.00054971
                   Y -0.00248657 -0.02595581  0.00000036 -0.00000030  0.00012191
                   Z  0.00000030  0.00000862 -0.05438073 -0.11079935 -0.00016787
 11   O            X -0.02605774  0.00266100 -0.00000298 -0.00000641  0.00055010
                   Y  0.00266690  0.02605629 -0.00000046 -0.00000032  0.00012339
                   Z  0.00000272  0.00001188 -0.05518532  0.11070287 -0.00014592

 TRANS. SAYVETZ    X  0.00061853  0.00021383  0.00011158 -0.00009096 -0.00007390
                   Y  0.00028098 -0.00067908  0.00001460  0.00014955 -0.00000589
                   Z  0.00009246  0.00034794 -0.06292441  0.00081947  0.00001197
               TOTAL  0.00068562  0.00079242  0.06292451  0.00083795  0.00007509

   ROT. SAYVETZ    X -0.02686212  0.02182182 -0.00018426  0.00002456  0.00013786
                   Y  0.01810693  0.02569796 -0.00034607  0.00007966 -0.00012167
                   Z -0.00002575 -0.00028523  0.00044289  0.00025282 -0.00000034
               TOTAL  0.03239498  0.03371436  0.00059150  0.00026620  0.00018387

                           31          32          33
       FREQUENCY:      2133.04     2137.16     2145.14  
        SYMMETRY:         E'          A2"         A1' 
    REDUCED MASS:     13.41767    13.34730    13.40197
    IR INTENSITY:      4.06734     1.84281     0.00001

  1   FE           X  0.00001474 -0.00000040 -0.00000124
                   Y -0.00006617 -0.00000047 -0.00000018
                   Z -0.00000084  0.00524662  0.00000795
  2   C            X -0.08537870  0.00004884 -0.06103012
                   Y  0.14798537 -0.00008420  0.10570588
                   Z  0.00000840 -0.01807752 -0.00004763
  3   C            X  0.06575428  0.00002522 -0.06102917
                   Y  0.11412766  0.00004550 -0.10570682
                   Z  0.00000137 -0.01807762 -0.00004763
  4   C            X -0.03914641 -0.00045164  0.12202418
                   Y  0.00017151 -0.00000058  0.00000063
                   Z -0.00000076 -0.01807746 -0.00004756
  5   O            X  0.06336574 -0.00003991  0.04501901
                   Y -0.10974538  0.00007015 -0.07797418
                   Z -0.00000066  0.00380268  0.00000828
  6   O            X -0.04885608 -0.00002389  0.04501830
                   Y -0.08460480 -0.00004046  0.07797498
                   Z -0.00000060  0.00380273  0.00000829
  7   O            X  0.02903660  0.00034499 -0.09001088
                   Y  0.00001186 -0.00000049 -0.00000051
                   Z -0.00000064  0.00380271  0.00000828
  8   C            X  0.00049337  0.00000916  0.00000084
                   Y -0.00220794 -0.00000023 -0.00000190
                   Z -0.00002834  0.15644409 -0.04301745
  9   C            X  0.00049385 -0.00000302  0.00000142
                   Y -0.00220627  0.00000087 -0.00000363
                   Z -0.00002350  0.15644064  0.04350771
 10   O            X -0.00012191  0.00000190  0.00000187
                   Y  0.00054972  0.00000026  0.00000008
                   Z  0.00002030 -0.11163780  0.03040662
 11   O            X -0.00012349 -0.00000347  0.00000421
                   Y  0.00055025 -0.00000042  0.00000004
                   Z  0.00001625 -0.11161732 -0.03075235

 TRANS. SAYVETZ    X  0.00001452 -0.00000699  0.00005642
                   Y -0.00008714 -0.00002568 -0.00007314
                   Z -0.00000700  0.00882093 -0.00051871
               TOTAL  0.00008862  0.00882097  0.00052687

   ROT. SAYVETZ    X  0.00015576  0.00001399  0.00008257
                   Y  0.00013811 -0.00107787  0.00024658
                   Z -0.00000020 -0.00022143 -0.00005673
               TOTAL  0.00020817  0.00110047  0.00026615

 REFERENCE ON SAYVETZ CONDITIONS - A. SAYVETZ, J.CHEM.PHYS., 7, 383-389(1939).

 NOTE - THE MODES J,K ARE ORTHONORMALIZED ACCORDING TO
 SUM ON I   M(I) * (X(I,J)*X(I,K) + Y(I,J)*Y(I,K) + Z(I,J)*Z(I,K)) = DELTA(J,K)

  MODE FREQ(CM**-1)  SYMMETRY  RED. MASS  IR INTENS.
     1       7.963    E'      15.299234    0.000042
     2       7.051    E'      15.630815    0.000124
     3       6.130    E''     17.634346    0.002723
     4       3.416    E'      17.299795    0.000043
     5       3.217    E'      16.894963    0.000020
     6       3.833    A2'     14.839976    0.000025
     7      17.835    E'      14.904872    0.002452
     8      17.984    E'      14.916235    0.002454
     9      64.105    E''     15.601784    0.000003
    10      64.171    E''     15.602180    0.000001
    11      76.439    E'      17.899986    0.010664
    12      76.457    E'      17.900982    0.010659
    13      86.146    A2"     17.153567    0.001756
    14     168.703    A1'     14.000151    0.000136
    15     184.304    A2"     23.328619    3.163850
    16     196.285    E'      15.322808    0.041685
    17     196.307    E'      15.320190    0.041664
    18     227.827    A2'     12.762306    0.000000
    19     228.860    E''     12.755208    0.000006
    20     228.922    E''     12.756118    0.000006
    21     279.141    A1'     14.048138    0.000488
    22     301.660    E'      17.245519    0.232844
    23     301.669    E'      17.245731    0.232814
    24     404.149    E'      12.682767    0.080802
    25     404.170    E'      12.682394    0.080840
    26     438.627    E''     12.235696    0.000003
    27     438.632    E''     12.235570    0.000004
    28     854.182    A2"     12.935831   49.995279
    29    2091.904    A1'     13.427701    0.000001
    30    2133.045    E'      13.417675    4.067333
    31    2133.045    E'      13.417674    4.067338
    32    2137.156    A2"     13.347304    1.842808
    33    2145.143    A1'     13.401971    0.000009

     -------------------------------
     THERMOCHEMISTRY AT T=  298.15 K
     -------------------------------

 USING IDEAL GAS, RIGID ROTOR, HARMONIC NORMAL MODE APPROXIMATIONS.
 P=  1.01325E+05 PASCAL.
 ALL FREQUENCIES ARE SCALED BY   1.00000
 THE MOMENTS OF INERTIA ARE (IN AMU*BOHR**2)
   2327.03807  2656.97834  2656.97834
 THE ROTATIONAL SYMMETRY NUMBER IS  6.0
 THE ROTATIONAL CONSTANTS ARE (IN GHZ)
      0.77484     0.67862     0.67862
      7 -     33 VIBRATIONAL MODES ARE USED IN THERMOCHEMISTRY.
 THE HARMONIC ZERO POINT ENERGY IS (SCALED BY   1.000)
        0.036216 HARTREE/MOLECULE     7948.434681 CM**-1/MOLECULE 
       22.725738 KCAL/MOL               95.084488 KJ/MOL

               Q               LN Q
 ELEC.     4.00000E+00       1.386294
 TRANS.    1.07780E+08      18.495600
 ROT.      2.41813E+05      12.395921
 VIB.      7.11904E+06      15.778284
 TOT.      7.42162E+20      48.056099

              E         H         G         CV        CP        S
           KJ/MOL    KJ/MOL    KJ/MOL   J/MOL-K   J/MOL-K   J/MOL-K
 ELEC.      0.000     0.000    -3.437     0.000     0.000    11.526
 TRANS.     3.718     6.197   -45.849    12.472    20.786   174.566
 ROT.       3.718     3.718   -30.729    12.472    12.472   115.536
 VIB.     126.935   126.935    55.971   158.896   158.896   238.013
 TOTAL    134.371   136.850   -24.044   183.839   192.154   539.641
 VIB. THERMAL CORRECTION E(T)-E(0) = H(T)-H(0) = 31850.117 J/MOL

              E         H         G         CV        CP        S
         KCAL/MOL  KCAL/MOL  KCAL/MOL CAL/MOL-K CAL/MOL-K CAL/MOL-K
 ELEC.      0.000     0.000    -0.821     0.000     0.000     2.755
 TRANS.     0.889     1.481   -10.958     2.981     4.968    41.722
 ROT.       0.889     0.889    -7.344     2.981     2.981    27.614
 VIB.      30.338    30.338    13.377    37.977    37.977    56.886
 TOTAL     32.116    32.708    -5.747    43.939    45.926   128.977
 VIB. THERMAL CORRECTION E(T)-E(0) = H(T)-H(0) =  7612.361 CAL/MOL
 ......END OF NORMAL COORDINATE ANALYSIS......
 CPU     0: STEP CPU TIME=     0.00 TOTAL CPU TIME=      48082.5 (    801.4 MIN)
 TOTAL WALL CLOCK TIME=      48927.0 SECONDS, CPU UTILIZATION IS    98.27%

   1 warning(s) detected.
     A line exceeding 80 characters begins with " ! TURN ON THIS SECT".
 There may be a problem in your input file.

             26754043  WORDS OF DYNAMIC MEMORY USED
 EXECUTION OF GAMESS TERMINATED NORMALLY Sat Mar 16 01:23:39 2024
 DDI: 494874536 bytes (471.9 MB / 58 MWords) used by master data server.
Note: The following floating-point exceptions are signalling: IEEE_UNDERFLOW_FLAG IEEE_DENORMAL
Note: The following floating-point exceptions are signalling: IEEE_UNDERFLOW_FLAG IEEE_DENORMAL
Note: The following floating-point exceptions are signalling: IEEE_UNDERFLOW_FLAG IEEE_DENORMAL

 ----------------------------------------
 CPU timing information for all processes
 ========================================
 0: 47980.636 + 101.897 = 48082.534
 1: 48010.957 + 99.05 = 48109.963
 2: 48034.345 + 73.434 = 48107.780
 3: 48076.687 + 88.958 = 48165.645
 4: 48079.326 + 88.840 = 48168.166
 5: 48100.236 + 68.925 = 48169.161
 ----------------------------------------
Note: The following floating-point exceptions are signalling: IEEE_UNDERFLOW_FLAG IEEE_DENORMAL
Note: The following floating-point exceptions are signalling: IEEE_UNDERFLOW_FLAG IEEE_DENORMAL
Note: The following floating-point exceptions are signalling: IEEE_UNDERFLOW_FLAG IEEE_DENORMAL
 ddikick.x: exited gracefully.
unset echo
----- accounting info -----
Files used on the master node io003 were:
-rwxr-xr-x 1 bjb2chen nooijen   2603192 Mar 15 11:48 /home/bjb2chen/gmsscr//FeCO_SPK_rohf_D3h_mp2_TZmult4_diis_ghx2.F05*
-rw-r--r-- 1 bjb2chen nooijen  40245600 Mar 16 01:23 /home/bjb2chen/gmsscr//FeCO_SPK_rohf_D3h_mp2_TZmult4_diis_ghx2.F10
-rw-r--r-- 1 bjb2chen nooijen 346030080 Mar 16 01:20 /home/bjb2chen/gmsscr//FeCO_SPK_rohf_D3h_mp2_TZmult4_diis_ghx2.F30
-rw-r--r-- 1 bjb2chen nooijen 346030080 Mar 16 01:20 /home/bjb2chen/gmsscr//FeCO_SPK_rohf_D3h_mp2_TZmult4_diis_ghx2.F30.001
-rw-r--r-- 1 bjb2chen nooijen 346030080 Mar 16 01:20 /home/bjb2chen/gmsscr//FeCO_SPK_rohf_D3h_mp2_TZmult4_diis_ghx2.F30.002
-rw-r--r-- 1 bjb2chen nooijen 346030080 Mar 16 01:20 /home/bjb2chen/gmsscr//FeCO_SPK_rohf_D3h_mp2_TZmult4_diis_ghx2.F30.003
-rw-r--r-- 1 bjb2chen nooijen 346030080 Mar 16 01:20 /home/bjb2chen/gmsscr//FeCO_SPK_rohf_D3h_mp2_TZmult4_diis_ghx2.F30.004
-rw-r--r-- 1 bjb2chen nooijen 346030080 Mar 16 01:20 /home/bjb2chen/gmsscr//FeCO_SPK_rohf_D3h_mp2_TZmult4_diis_ghx2.F30.005
-rw-r--r-- 1 bjb2chen nooijen    571080 Mar 16 01:02 /home/bjb2chen/gmsscr//FeCO_SPK_rohf_D3h_mp2_TZmult4_diis_ghx2.F45
-rw-r--r-- 1 bjb2chen nooijen   1142160 Mar 16 01:02 /home/bjb2chen/gmsscr//FeCO_SPK_rohf_D3h_mp2_TZmult4_diis_ghx2.F45.001
-rw-r--r-- 1 bjb2chen nooijen   1142160 Mar 16 01:02 /home/bjb2chen/gmsscr//FeCO_SPK_rohf_D3h_mp2_TZmult4_diis_ghx2.F45.002
-rw-r--r-- 1 bjb2chen nooijen   1142160 Mar 16 01:02 /home/bjb2chen/gmsscr//FeCO_SPK_rohf_D3h_mp2_TZmult4_diis_ghx2.F45.003
-rw-r--r-- 1 bjb2chen nooijen   1142160 Mar 16 01:02 /home/bjb2chen/gmsscr//FeCO_SPK_rohf_D3h_mp2_TZmult4_diis_ghx2.F45.004
-rw-r--r-- 1 bjb2chen nooijen   1142160 Mar 16 01:02 /home/bjb2chen/gmsscr//FeCO_SPK_rohf_D3h_mp2_TZmult4_diis_ghx2.F45.005
-rw-r--r-- 1 bjb2chen nooijen    571080 Mar 16 01:02 /home/bjb2chen/gmsscr//FeCO_SPK_rohf_D3h_mp2_TZmult4_diis_ghx2.F46
-rw-r--r-- 1 bjb2chen nooijen   1142160 Mar 16 01:02 /home/bjb2chen/gmsscr//FeCO_SPK_rohf_D3h_mp2_TZmult4_diis_ghx2.F46.001
-rw-r--r-- 1 bjb2chen nooijen   1142160 Mar 16 01:02 /home/bjb2chen/gmsscr//FeCO_SPK_rohf_D3h_mp2_TZmult4_diis_ghx2.F46.002
-rw-r--r-- 1 bjb2chen nooijen   1142160 Mar 16 01:02 /home/bjb2chen/gmsscr//FeCO_SPK_rohf_D3h_mp2_TZmult4_diis_ghx2.F46.003
-rw-r--r-- 1 bjb2chen nooijen   1142160 Mar 16 01:02 /home/bjb2chen/gmsscr//FeCO_SPK_rohf_D3h_mp2_TZmult4_diis_ghx2.F46.004
-rw-r--r-- 1 bjb2chen nooijen   1142160 Mar 16 01:02 /home/bjb2chen/gmsscr//FeCO_SPK_rohf_D3h_mp2_TZmult4_diis_ghx2.F46.005
ls: No match.
ls: No match.
ls: No match.
Sat 16 Mar 2024 01:23:43 AM EDT
0.340u 0.483s 13:35:31.69 0.0%	0+0k 5088+5288io 0pf+0w
