----- GAMESS execution script 'rungms' -----
This job is running on host io003
under operating system Linux at Sat 16 Mar 2024 09:36:08 PM EDT
Available scratch disk space (Kbyte units) at beginning of the job is
Filesystem             1K-blocks       Used Available Use% Mounted on
helmholtz.nlogn:/home 6391504896 5290592256 778773504  88% /home
GAMESS temporary binary files will be written to /home/bjb2chen/gmsscr/
GAMESS supplementary output files will be written to /home/bjb2chen/gamess/vibronics/template_examples/Fe_pentaCO
Copying input file FeCO_SPK_rhf_D3h_mp2_mult1_diis_ghx3.inp to your run's scratch directory...
cp FeCO_SPK_rhf_D3h_mp2_mult1_diis_ghx3.inp /home/bjb2chen/gmsscr//FeCO_SPK_rhf_D3h_mp2_mult1_diis_ghx3.F05
unset echo
 
Assuming a single but multicore node.
 
/home/bjb2chen/gamess/ddikick.x /home/bjb2chen/gamess/gamess.00.x FeCO_SPK_rhf_D3h_mp2_mult1_diis_ghx3 -ddi 1 12 io003:cpus=12 -scr /home/bjb2chen/gmsscr/

 Distributed Data Interface kickoff program.
 Initiating 12 compute processes on 1 nodes to run the following command:
 /home/bjb2chen/gamess/gamess.00.x FeCO_SPK_rhf_D3h_mp2_mult1_diis_ghx3 

          ******************************************************
          *         GAMESS VERSION = 02 AUG 2018 (R2)         *
          *             FROM IOWA STATE UNIVERSITY             *
          * M.W.SCHMIDT, K.K.BALDRIDGE, J.A.BOATZ, S.T.ELBERT, *
          *   M.S.GORDON, J.H.JENSEN, S.KOSEKI, N.MATSUNAGA,   *
          *          K.A.NGUYEN, S.J.SU, T.L.WINDUS,           *
          *       TOGETHER WITH M.DUPUIS, J.A.MONTGOMERY       *
          *         J.COMPUT.CHEM.  14, 1347-1363(1993)        *
          **************** 64 BIT LINUX VERSION ****************

  SINCE 1993, STUDENTS AND POSTDOCS WORKING AT IOWA STATE UNIVERSITY
  AND ALSO IN THEIR VARIOUS JOBS AFTER LEAVING ISU HAVE MADE IMPORTANT
  CONTRIBUTIONS TO THE CODE:
     IVANA ADAMOVIC, CHRISTINE AIKENS, YURI ALEXEEV, POOJA ARORA,
     ANDREY ASADCHEV, ROB BELL, PRADIPTA BANDYOPADHYAY, JONATHAN BENTZ,
     BRETT BODE, KURT BRORSEN, CALEB CARLIN, GALINA CHABAN, WEI CHEN,
     CHEOL HO CHOI, PAUL DAY, ALBERT DEFUSCO, NUWAN DESILVA, TIM DUDLEY,
     DMITRI FEDOROV, ALEX FINDLATER, GRAHAM FLETCHER, MARK FREITAG,
     KURT GLAESEMANN, ANASTASIA GUININA,
     DAN KEMP, GRANT MERRILL, NORIYUKI MINEZAWA, JONATHAN MULLIN,
     TAKESHI NAGATA, SEAN NEDD, HEATHER NETZLOFF, BOSILJKA NJEGIC, RYAN OLSON,
     MIKE PAK, BUU PHAM,
     SPENCER PRUITT, LUKE ROSKOP, JIM SHOEMAKER, LYUDMILA SLIPCHENKO,
     TONY SMITH, SAROM SOK LEANG, JIE SONG, TETSUYA TAKETSUGU, SIMON WEBB,
     PENG XU, SOOHAENG YOO, FEDERICO ZAHARIEV

  ADDITIONAL CODE HAS BEEN PROVIDED BY COLLABORATORS IN OTHER GROUPS:
     IOWA STATE UNIVERSITY:
          JOE IVANIC, AARON WEST, LAIMUTIS BYTAUTAS, KLAUS RUEDENBERG
     UNIVERSITY OF TOKYO: KIMIHIKO HIRAO, TAKAHITO NAKAJIMA,
          TAKAO TSUNEDA, MUNEAKI KAMIYA, SUSUMU YANAGISAWA,
          KIYOSHI YAGI, MAHITO CHIBA, SEIKEN TOKURA, NAOAKI KAWAKAMI
     UNIVERSITY OF AARHUS: FRANK JENSEN
     UNIVERSITY OF IOWA: VISVALDAS KAIRYS, HUI LI
     NATIONAL INST. OF STANDARDS AND TECHNOLOGY: WALT STEVENS, DAVID GARMER
     UNIVERSITY OF PISA: BENEDETTA MENNUCCI, JACOPO TOMASI
     UNIVERSITY OF MEMPHIS: HENRY KURTZ, PRAKASHAN KORAMBATH
     UNIVERSITY OF ALBERTA: TOBY ZENG, MARIUSZ KLOBUKOWSKI
     UNIVERSITY OF NEW ENGLAND: MARK SPACKMAN
     MIE UNIVERSITY: HIROAKI UMEDA
     NAT. INST. OF ADVANCED INDUSTRIAL SCIENCE AND TECHNOLOGY: KAZUO KITAURA
     MICHIGAN STATE UNIVERSITY:
          KAROL KOWALSKI, MARTA WLOCH, JEFFREY GOUR, JESSE LUTZ,
          WEI LI, JUN SHEN, J. EMILIANO DEUSTUA, PIOTR PIECUCH
     UNIVERSITY OF MINNESOTA:
          YINAN SHU
     UNIVERSITY OF SILESIA: MONIKA MUSIAL, STANISLAW KUCHARSKI
     FACULTES UNIVERSITAIRES NOTRE-DAME DE LA PAIX:
          OLIVIER QUINET, BENOIT CHAMPAGNE
     UNIVERSITY OF CALIFORNIA - SANTA BARBARA: BERNARD KIRTMAN
     INSTITUTE FOR MOLECULAR SCIENCE:
          KAZUYA ISHIMURA, MICHIO KATOUDA, AND SHIGERU NAGASE
     UNIVERSITY OF NOTRE DAME: ANNA POMOGAEVA, DAN CHIPMAN
     KYUSHU UNIVERSITY:
          HARUYUKI NAKANO,
          FENG LONG GU, JACEK KORCHOWIEC, MARCIN MAKOWSKI, AND YURIKO AOKI,
          HIROTOSHI MORI AND EISAKU MIYOSHI
     PENNSYLVANIA STATE UNIVERSITY:
          TZVETELIN IORDANOV, CHET SWALINA, JONATHAN SKONE,
          SHARON HAMMES-SCHIFFER
     WASEDA UNIVERSITY:
          MASATO KOBAYASHI, TOMOKO AKAMA, TSUGUKI TOUMA,
          TAKESHI YOSHIKAWA, YASUHIRO IKABATA, JUNJI SEINO,
          YUYA NAKAJIMA, HIROMI NAKAI
     NANJING UNIVERSITY: SHUHUA LI
     UNIVERSITY OF NEBRASKA:
          PEIFENG SU, DEJUN SI, NANDUN THELLAMUREGE, YALI WANG, HUI LI
     UNIVERSITY OF ZURICH: ROBERTO PEVERATI, KIM BALDRIDGE
     N. COPERNICUS UNIVERSITY AND JACKSON STATE UNIVERSITY:
          MARIA BARYSZ
     UNIVERSITY OF COPENHAGEN: Jimmy Kromann, CASPER STEINMANN
     TOKYO INSTITUTE OF TECHNOLOGY: HIROYA NAKATA
     NAGOYA UNIVERSITY: YOSHIO NISHIMOTO, STEPHAN IRLE
     MOSCOW STATE UNIVERSITY: VLADIMIR MIRONOV


 PARALLEL VERSION RUNNING ON       12 PROCESSORS IN        1 NODES.

 EXECUTION OF GAMESS BEGUN Sat Mar 16 21:36:09 2024

            ECHO OF THE FIRST FEW INPUT CARDS -
 INPUT CARD> !############################################################################# 
 INPUT CARD> !                   D_3h RHF GEOMETRY OPTIMIZATION AND HESSIAN TEMPLATE        
 INPUT CARD> ! ---------------------------------------------------------------------------  
 INPUT CARD> ! Replace the symmetry-correct coordinates, should only be two atoms.          
 INPUT CARD> ! The hydrogen or fluorine should have only one non-zero x,y,z coordinate.     
 INPUT CARD> !                                                                              
 INPUT CARD> ! Basis set?   gbasis=ccd for 2nd row,                                         
 INPUT CARD> !                         cct 3rd/4th,                                         
 INPUT CARD> !                   SPKrTZP for heavy,                                         
 INPUT CARD> !                   SPKrTZC beyond 4th                                         
 INPUT CARD> !                                                                              
 INPUT CARD> !############################################################################# 
 INPUT CARD> $system kdiag=3 mwords=300 memddi=15000 parall=.t. $end                        
 INPUT CARD> $contrl runtyp=optimize ispher=1 $end                                          
 INPUT CARD> $contrl icut=9 itol=20 inttyp=rysquad qmttol=1.0d-05 nosym=0 $end              
 INPUT CARD> $contrl scftyp=rhf  mult=1 maxit=200 icharg=0 mplevl=2 $end                    
 INPUT CARD> $scf    npunch=2 conv=1.0d-06 dirscf=.t. $end                                  
 INPUT CARD> $force  method=seminum $end                                                    
 INPUT CARD> $trans  dirtrf=.t. $end                                                        
 INPUT CARD> $statpt hssend=.t. $end                                                        
 INPUT CARD> $basis  gbasis=SPKrTZP $end                                                    
 INPUT CARD> !############################################################################# 
 INPUT CARD> !                                                                              
 INPUT CARD> !                       TURN ON THIS SECTION IF HEAVY ATOM                     
 INPUT CARD> !                                                                              
 INPUT CARD> !############################################################################# 
 INPUT CARD> !                                                                              
 INPUT CARD> $contrl relwfn=LUT-IOTC $end                                                   
 INPUT CARD> $scf  diis=.t. soscf=.f. ethrsh=10.0 $end                                      
 INPUT CARD> -guess iorder(25)=27,25,26 $end                                                
 INPUT CARD> -gmcpt nsolut=100 $end                                                         
 INPUT CARD> !                                                                              
 INPUT CARD> !############################################################################# 
 INPUT CARD> !                                                                              
 INPUT CARD> ! TURN ON THIS SECTION IF GMCPT, CHANGE runtyp=energy, scftyp=mcscf, change nos
 INPUT CARD> !                                                                              
 INPUT CARD> !############################################################################# 
 INPUT CARD> $guess  guess=moread norb=369 purify=.t. norder=1 $end                         
 INPUT CARD> -mcscf  cistep=gmcci fullnr=.t. finci=mos                                      
 INPUT CARD>         acurcy=1.d-6 maxit=100 $end                                            
 INPUT CARD> -mrmp   mrpt=gmcpt rdvecs=.f. $end                                             
 INPUT CARD> -gmcpt  nmofzc=27 nmodoc=0 nmoact=5 nelact=5 stsym(1)=A                        
 INPUT CARD>         reftyp=ormas nspace=1 mstart(1)=28 mine(1)=5 maxe(1)=5                 
 INPUT CARD>         kstate(1)=1                                                            
 INPUT CARD>         wstate(1)=1                                                            
 INPUT CARD>         iwgt=0 thrwgt=-1.0 krot=.f. kszdoe=.f. knospn=.f.                      
 INPUT CARD>         thrde=-1.0 edshft=0.02 $end                                            
 INPUT CARD> !############################################################################# 
 INPUT CARD> !                                                                              
 INPUT CARD> !             TURN OFF THIS SECTION IF temp.inp, add C1                        
  300000000 WORDS OF MEMORY AVAILABLE

     $BASIS REQUESTS READING THE "SPKRTZP " BASIS SET FROM AN EXTERNAL FILE


     RUN TITLE
     ---------
  Iron pentacarbonyl optimization                                                

 THE POINT GROUP OF THE MOLECULE IS DNH     
 THE ORDER OF THE PRINCIPAL AXIS IS     3

 THE EXTERNAL BASIS SET FILE BEING READ IS
     "/home/bjb2chen/gamess/auxdata/BASES/SPKRTZP"

 ATOM      ATOMIC                      COORDINATES (BOHR)
           CHARGE         X                   Y                   Z
 FE         26.0     0.0000000000       -0.0000000000        0.0000000000
 C           6.0    -1.8374781388        3.1826054943        0.0000000000
 C           6.0    -1.8374781388       -3.1826054943        0.0000000000
 C           6.0     3.6749562777        0.0000000000        0.0000000000
 O           8.0    -2.9170688135        5.0525113941        0.0000000000
 O           8.0    -2.9170688135       -5.0525113941        0.0000000000
 O           8.0     5.8341376269        0.0000000000        0.0000000000
 C           6.0     0.0000000000        0.0000000000       -3.7806120833
 C           6.0     0.0000000000       -0.0000000000        3.7806120833
 O           8.0     0.0000000000        0.0000000000       -5.9285383079
 O           8.0    -0.0000000000       -0.0000000000        5.9285383079

          INTERNUCLEAR DISTANCES (ANGS.)
          ------------------------------

                1 FE         2 C          3 C          4 C          5 O     

   1 FE      0.0000000    1.9447033 *  1.9447033 *  1.9447033 *  3.0872929  
   2 C       1.9447033 *  0.0000000    3.3683248    3.3683248    1.1425896 *
   3 C       1.9447033 *  3.3683248    0.0000000    3.3683248    4.3951242  
   4 C       1.9447033 *  3.3683248    3.3683248    0.0000000    4.3951242  
   5 O       3.0872929    1.1425896 *  4.3951242    4.3951242    0.0000000  
   6 O       3.0872929    4.3951242    1.1425896 *  4.3951242    5.3473482  
   7 O       3.0872929    4.3951242    4.3951242    1.1425896 *  5.3473482  
   8 C       2.0006139 *  2.7900406 *  2.7900406 *  2.7900406 *  3.6788359  
   9 C       2.0006139 *  2.7900406 *  2.7900406 *  2.7900406 *  3.6788359  
  10 O       3.1372476    3.6910965    3.6910965    3.6910965    4.4015565  
  11 O       3.1372476    3.6910965    3.6910965    3.6910965    4.4015565  

                6 O          7 O          8 C          9 C         10 O     

   1 FE      3.0872929    3.0872929    2.0006139 *  2.0006139 *  3.1372476  
   2 C       4.3951242    4.3951242    2.7900406 *  2.7900406 *  3.6910965  
   3 C       1.1425896 *  4.3951242    2.7900406 *  2.7900406 *  3.6910965  
   4 C       4.3951242    1.1425896 *  2.7900406 *  2.7900406 *  3.6910965  
   5 O       5.3473482    5.3473482    3.6788359    3.6788359    4.4015565  
   6 O       0.0000000    5.3473482    3.6788359    3.6788359    4.4015565  
   7 O       5.3473482    0.0000000    3.6788359    3.6788359    4.4015565  
   8 C       3.6788359    3.6788359    0.0000000    4.0012278    1.1366337 *
   9 C       3.6788359    3.6788359    4.0012278    0.0000000    5.1378615  
  10 O       4.4015565    4.4015565    1.1366337 *  5.1378615    0.0000000  
  11 O       4.4015565    4.4015565    5.1378615    1.1366337 *  6.2744952  

               11 O     

   1 FE      3.1372476  
   2 C       3.6910965  
   3 C       3.6910965  
   4 C       3.6910965  
   5 O       4.4015565  
   6 O       4.4015565  
   7 O       4.4015565  
   8 C       5.1378615  
   9 C       1.1366337 *
  10 O       6.2744952  
  11 O       0.0000000  

  * ... LESS THAN  3.000


     ATOMIC BASIS SET
     ----------------
 THE CONTRACTED PRIMITIVE FUNCTIONS HAVE BEEN UNNORMALIZED
 THE CONTRACTED BASIS FUNCTIONS ARE NOW NORMALIZED TO UNITY

  SHELL TYPE  PRIMITIVE        EXPONENT          CONTRACTION COEFFICIENT(S)

 FE        

      1   S       1       1100791.5305010    0.000473999976
      1   S       2        111958.3587060    0.002184999889
      1   S       3         19185.3576710    0.008689999559
      1   S       4          4445.3037100    0.032685998341
      1   S       5          1266.9965100    0.110141994410
      1   S       6           416.6310290    0.284031985586
      1   S       7           150.8643160    0.454264876947
      1   S       8            56.3399190    0.263064986650

      2   S       9           359.6946140   -0.022463999939
      2   S      10           108.1698330   -0.110348999698
      2   S      11            16.2239570    0.581708898408
      2   S      12             6.5680420    0.504839898618

      3   S      13            10.7418790   -0.362092191734
      3   S      14             1.7503840    1.164823573408

      4   S      15             2.5115960    1.000000000000

      5   S      16             0.7053330    1.000000000000

      6   S      17             0.3621190    1.000000000000

      7   S      18             0.1098870    1.000000000000

      8   S      19             0.0389760    1.000000000000

      9   P      20          3763.5373930    0.001033999945
      9   P      21           777.6255800    0.008099999572
      9   P      22           235.1625800    0.042150997771
      9   P      23            85.2386240    0.150979992017
      9   P      24            34.2178420    0.344345981793
      9   P      25            14.4530580    0.445691976434
      9   P      26             6.0108430    0.197984989532

     10   P      27            29.2356570   -0.050671998602
     10   P      28             3.8658850    1.015612071978

     11   P      29             1.5321320    1.000000000000

     12   P      30             0.6880240    1.000000000000

     13   P      31             0.3377060    1.000000000000

     14   P      32             0.1058510    1.000000000000

     15   D      33           153.1499290    0.002483999928
     15   D      34            39.2185330    0.024814999278
     15   D      35            13.1241220    0.112497096729
     15   D      36             4.9420130    0.294331191441
     15   D      37             1.9182510    0.436439287309
     15   D      38             0.7263080    0.400155288364

     16   D      39             1.2013780    1.000000000000

     17   D      40             0.4134800    1.000000000000

     18   D      41             0.2769570    0.803321387841
     18   D      42             0.1024240    0.267279095955

     19   F      43             7.1173700    0.248360909500
     19   F      44             2.0161170    0.867482733183

     20   F      45             0.5734880    1.000000000000

     21   G      46             3.1098950    0.428615975933
     21   G      47             0.8477510    0.770538956734

 C         

     42   S      48          2806.9439975    0.002023800059
     42   S      49           421.5775504    0.015441100454
     42   S      50            95.8957402    0.075177402208
     42   S      51            26.9445497    0.249027707314
     42   S      52             8.5713784    0.482075214159
     42   S      53             2.8716364    0.326878109601

     43   S      54             4.9998841   -0.210680004154
     43   S      55             0.5327613    1.077681121247

     44   S      56             0.2075124    1.000000000000

     45   S      57             0.0868337    1.000000000000

     46   P      58            18.6818848    0.039471499719
     46   P      59             4.1250373    0.244388698258
     46   P      60             1.1979790    0.815218894188

     47   P      61             0.3821592    1.000000000000

     48   P      62             0.1206886    1.000000000000

     49   D      63             3.0148490    0.111983997300
     49   D      64             0.8820640    0.935464277443

     50   D      65             0.2854600    1.000000000000

     51   F      66             1.2468250    0.439684998371
     51   F      67             0.4390430    0.686338997457

 O         

     72   S      68          5077.7107079    0.002005200049
     72   S      69           762.6032479    0.015311300372
     72   S      70           173.4747916    0.074816301816
     72   S      71            48.8026730    0.249940906066
     72   S      72            15.6087813    0.483164411726
     72   S      73             5.2562810    0.324034307864

     73   S      74             9.8167720   -0.213008798624
     73   S      75             1.0626144    1.079351093025

     74   S      76             0.4112889    1.000000000000

     75   S      77             0.1672821    1.000000000000

     76   P      78            34.4309698    0.041201500385
     76   P      79             7.7428211    0.257878902408
     76   P      80             2.2788395    0.802283507490

     77   P      81             0.7151603    1.000000000000

     78   P      82             0.2137722    1.000000000000

     79   D      83             5.9603300    0.136289097514
     79   D      84             1.7648530    0.919489483226

     80   D      85             0.5756600    1.000000000000

     81   F      86             2.4143370    0.424090301385
     81   F      87             0.7676600    0.719405502349

 C         

     92   S      88          2806.9439975    0.002023800059
     92   S      89           421.5775504    0.015441100454
     92   S      90            95.8957402    0.075177402208
     92   S      91            26.9445497    0.249027707314
     92   S      92             8.5713784    0.482075214159
     92   S      93             2.8716364    0.326878109601

     93   S      94             4.9998841   -0.210680004154
     93   S      95             0.5327613    1.077681121247

     94   S      96             0.2075124    1.000000000000

     95   S      97             0.0868337    1.000000000000

     96   P      98            18.6818848    0.039471499719
     96   P      99             4.1250373    0.244388698258
     96   P     100             1.1979790    0.815218894188

     97   P     101             0.3821592    1.000000000000

     98   P     102             0.1206886    1.000000000000

     99   D     103             3.0148490    0.111983997300
     99   D     104             0.8820640    0.935464277443

    100   D     105             0.2854600    1.000000000000

    101   F     106             1.2468250    0.439684998371
    101   F     107             0.4390430    0.686338997457

 O         

    112   S     108          5077.7107079    0.002005200049
    112   S     109           762.6032479    0.015311300372
    112   S     110           173.4747916    0.074816301816
    112   S     111            48.8026730    0.249940906066
    112   S     112            15.6087813    0.483164411726
    112   S     113             5.2562810    0.324034307864

    113   S     114             9.8167720   -0.213008798624
    113   S     115             1.0626144    1.079351093025

    114   S     116             0.4112889    1.000000000000

    115   S     117             0.1672821    1.000000000000

    116   P     118            34.4309698    0.041201500385
    116   P     119             7.7428211    0.257878902408
    116   P     120             2.2788395    0.802283507490

    117   P     121             0.7151603    1.000000000000

    118   P     122             0.2137722    1.000000000000

    119   D     123             5.9603300    0.136289097514
    119   D     124             1.7648530    0.919489483226

    120   D     125             0.5756600    1.000000000000

    121   F     126             2.4143370    0.424090301385
    121   F     127             0.7676600    0.719405502349

 TOTAL NUMBER OF BASIS SET SHELLS             =  121
 NUMBER OF CARTESIAN GAUSSIAN BASIS FUNCTIONS =  435
 NOTE: THIS RUN WILL RESTRICT THE MO VARIATION SPACE TO SPHERICAL HARMONICS.
 THE NUMBER OF ORBITALS KEPT IN THE VARIATIONAL SPACE WILL BE PRINTED LATER.
 NUMBER OF ELECTRONS                          =   96
 CHARGE OF MOLECULE                           =    0
 SPIN MULTIPLICITY                            =    1
 NUMBER OF OCCUPIED ORBITALS (ALPHA)          =   48
 NUMBER OF OCCUPIED ORBITALS (BETA )          =   48
 TOTAL NUMBER OF ATOMS                        =   11
 THE NUCLEAR REPULSION ENERGY IS      758.9269559748

     ---------------------------------
     RELATIVISTIC WAVEFUNCTION OPTIONS
     ---------------------------------
     METHOD=LUT-IOTC NORDER= 2       NESOC=  0      MODEQR=      1
     NRATOM=  0      QMTTOL= 1.000E-10      QRTOL= 1.000E-10
     CLIGHT=137.03598950     TAU= 3.500E+00

 INTERNAL BASIS SET UNCONTRACTION FOR RESC/DK/IOTC/LUT-IOTC:
   247 SHELLS AND    808 AOS ARE CONSTRUCTED, COMPARED TO
   121 SHELLS AND    435 AOS IN THE CONTRACTED BASIS SET


     $CONTRL OPTIONS
     ---------------
 SCFTYP=RHF          RUNTYP=OPTIMIZE     EXETYP=RUN     
 MPLEVL=       2     CITYP =NONE         CCTYP =NONE         VBTYP =NONE    
 DFTTYP=NONE         TDDFT =NONE    
 MULT  =       1     ICHARG=       0     NZVAR =       0     COORD =UNIQUE  
 PP    =NONE         RELWFN=LUT-IOTC     LOCAL =NONE         NUMGRD=       F
 ISPHER=       1     NOSYM =       0     MAXIT =     200     UNITS =ANGS    
 PLTORB=       F     MOLPLT=       F     AIMPAC=       F     FRIEND=        
 NPRINT=       7     IREST =       0     GEOM  =INPUT   
 NORMF =       0     NORMP =       0     ITOL  =      20     ICUT  =       9
 INTTYP=RYSQUAD      GRDTYP=BEST         QMTTOL= 1.0E-05

     $SYSTEM OPTIONS
     ---------------
  REPLICATED MEMORY=   300000000 WORDS (ON EVERY NODE).
 DISTRIBUTED MEMDDI=       15000 MILLION WORDS IN AGGREGATE,
 MEMDDI DISTRIBUTED OVER  12 PROCESSORS IS  1250000000 WORDS/PROCESSOR.
 TOTAL MEMORY REQUESTED ON EACH PROCESSOR=  1550000000 WORDS.
 TIMLIM=      525600.00 MINUTES, OR     365.0 DAYS.
 PARALL= T  BALTYP=  DLB     KDIAG=    3  COREFL= F
 MXSEQ2=     300 MXSEQ3=     150  mem10=         0

          ----------------
          PROPERTIES INPUT
          ----------------

     MOMENTS            FIELD           POTENTIAL          DENSITY
 IEMOM =       1   IEFLD =       0   IEPOT =       0   IEDEN =       0
 WHERE =COMASS     WHERE =NUCLEI     WHERE =NUCLEI     WHERE =NUCLEI  
 OUTPUT=BOTH       OUTPUT=BOTH       OUTPUT=BOTH       OUTPUT=BOTH    
 IEMINT=       0   IEFINT=       0                     IEDINT=       0
                                                       MORB  =       0
          EXTRAPOLATION IN EFFECT
          DIIS IN EFFECT
 ORBITAL PRINTING OPTION: NPREO=     1   435     2     1

     -------------------------------
     INTEGRAL TRANSFORMATION OPTIONS
     -------------------------------
     NWORD  =            0
     CUTOFF = 1.0E-09     MPTRAN =       0
     DIRTRF =       T     AOINTS =DUP     

          ----------------------
          INTEGRAL INPUT OPTIONS
          ----------------------
 NOPK  =       1 NORDER=       0 SCHWRZ=       T

          -----------------------
          MP2 CONTROL INFORMATION
          -----------------------
          NACORE =       19  NBCORE =       19
          LMOMP2 =        F  AOINTS = DUP     
          METHOD =        2  NWORD  =               0
          MP2PRP =        F  OSPT   = NONE    
          CUTOFF = 1.00E-09  CPHFBS = BASISAO 
          CODE   = DDI     

          NUMBER OF CORE -A-  ORBITALS =    19
          NUMBER OF CORE -B-  ORBITALS =    19
          NUMBER OF OCC. -A-  ORBITALS =    48
          NUMBER OF OCC. -B-  ORBITALS =    48
          NUMBER OF MOLECULAR ORBITALS =   435
          NUMBER OF   BASIS  FUNCTIONS =   435


 **** EFFICIENCY NOTE ****
 THE MP2 TRANSFORMATION CANNOT USE SYMMETRY WHEN THE GROUP IS NON-ABELIAN.
 YOU MAY BE ABLE TO SPEED UP THIS RUN BY USING AN ABELIAN SUBGROUP IN $DATA.


     ------------------------------------------
     THE POINT GROUP IS DNH, NAXIS= 3, ORDER=12
     ------------------------------------------

 -- VARIATIONAL SPACE WILL BE RESTRICTED TO PURE SPHERICAL HARMONICS ONLY --
 AFTER EXCLUDING CONTAMINANT COMBINATIONS FROM THE CARTESIAN GAUSSIAN BASIS
 SET, THE NUMBER OF SPHERICAL HARMONICS KEPT IN THE VARIATION SPACE IS  369

     DIMENSIONS OF THE SYMMETRY SUBSPACES ARE
 A1' =   63     A1" =    9     A2' =   18     A2" =   45     E'' =   45
 E'  =   72

 ..... DONE SETTING UP THE RUN .....
 CPU     0: STEP CPU TIME=     2.03 TOTAL CPU TIME=          2.0 (      0.0 MIN)
 TOTAL WALL CLOCK TIME=          2.1 SECONDS, CPU UTILIZATION IS    97.13%


          -----------------------------
          STATIONARY POINT LOCATION RUN
          -----------------------------

 OBTAINING INITIAL HESSIAN, HESS=GUESS   
 CARTESIAN COORDINATE OPTIMIZATION USING BADGER'S RULE FORCE CONSTANT GUESS

          PARAMETERS CONTROLLING GEOMETRY SEARCH ARE
          METHOD =QA                  UPHESS =BFGS    
          NNEG   =         0          NFRZ   =         0
          NSTEP  =        50          IFOLOW =         1
          HESS   =GUESS               RESTAR =         F
          IHREP  =         0          HSSEND =         T
          NPRT   =         0          NPUN   =         0
          OPTTOL = 1.000E-04          RMIN   = 1.500E-03
          RMAX   = 1.000E-01          RLIM   = 7.000E-02
          DXMAX  = 3.000E-01          PURIFY =         F
          MOVIE  =         F          TRUPD  =         T
          TRMAX  = 5.000E-01          TRMIN  = 5.000E-02
          ITBMAT =         5          STPT   =         F
          STSTEP = 1.000E-02          PROJCT=          T

 BEGINNING GEOMETRY SEARCH POINT NSERCH=   0 ...

 COORDINATES OF SYMMETRY UNIQUE ATOMS (ANGS)
   ATOM   CHARGE       X              Y              Z
 ------------------------------------------------------------
 FE         26.0   0.0000000000  -0.0000000000   0.0000000000
 C           6.0   1.9447032541   0.0000000000   0.0000000000
 O           8.0   3.0872929011   0.0000000000   0.0000000000
 C           6.0   0.0000000000  -0.0000000000   2.0006139027
 O           8.0  -0.0000000000  -0.0000000000   3.1372475938
 COORDINATES OF ALL ATOMS ARE (ANGS)
   ATOM   CHARGE       X              Y              Z
 ------------------------------------------------------------
 FE         26.0   0.0000000000  -0.0000000000   0.0000000000
 C           6.0  -0.9723516271   1.6841624209   0.0000000000
 C           6.0  -0.9723516271  -1.6841624209   0.0000000000
 C           6.0   1.9447032541   0.0000000000   0.0000000000
 O           8.0  -1.5436464505   2.6736740813   0.0000000000
 O           8.0  -1.5436464506  -2.6736740813   0.0000000000
 O           8.0   3.0872929011   0.0000000000   0.0000000000
 C           6.0   0.0000000000   0.0000000000  -2.0006139027
 C           6.0   0.0000000000  -0.0000000000   2.0006139027
 O           8.0   0.0000000000   0.0000000000  -3.1372475938
 O           8.0  -0.0000000000  -0.0000000000   3.1372475938

          ********************
          1 ELECTRON INTEGRALS
          ********************
 TIME TO DO ORDINARY INTEGRALS=      0.02

 ======================================================================
      INFINITE-ORDER TWO-COMPONENT (IOTC) ONE-ELECTRON HAMILTONIAN
      WITH LOCAL UNITARY TRANSFORMATION (LUT) SCHEME
                                            CODED BY YUYA NAKAJIMA
             J. SEINO, H. NAKAI, J. CHEM. PHYS. 136, 244102 (2012)
             J. SEINO, H. NAKAI, J. CHEM. PHYS. 137, 144101 (2012)
             J. SEINO, H. NAKAI, J. CHEM. PHYS. 139, 034109 (2013)
        J. SEINO, H. NAKAI, INT. J. QUANTUM. CHEM. 115, 253 (2015)
 ======================================================================

 LUT-IOTC TRANSFORMATION FOR ATOM:    1
 THE SMALLEST EIGENVALUE OF THE OVERLAP MATRIX IS   5.23E-12
 THERE ARE     2 OVERLAP MATRIX EIGENVALUES LESS THAN   1.00E-10
 THE NUMBER OF LINEARLY INDEPENDENT ORBITALS KEPT IS   176

 LUT-IOTC TRANSFORMATION FOR ATOM:    2
 LUT-IOTC TRANSFORMATION FOR ATOM:    3
 LUT-IOTC TRANSFORMATION FOR ATOM:    4
 LUT-IOTC TRANSFORMATION FOR ATOM:    5
 LUT-IOTC TRANSFORMATION FOR ATOM:    6
 LUT-IOTC TRANSFORMATION FOR ATOM:    7
 LUT-IOTC TRANSFORMATION FOR ATOM:    8
 LUT-IOTC TRANSFORMATION FOR ATOM:    9
 LUT-IOTC TRANSFORMATION FOR ATOM:   10
 LUT-IOTC TRANSFORMATION FOR ATOM:   11

     -------------------------------------
     LUT-IOTC TRANSFORMATION FOR ATOM-PAIR
     -------------------------------------

                1 FE         2 C          3 C          4 C          5 O     

   1 FE      0.0000000    1.9447033 *  1.9447033 *  1.9447033 *  3.0872929 *
   2 C       1.9447033 *  0.0000000    3.3683248 *  3.3683248 *  1.1425896 *
   3 C       1.9447033 *  3.3683248 *  0.0000000    3.3683248 *  4.3951242  
   4 C       1.9447033 *  3.3683248 *  3.3683248 *  0.0000000    4.3951242  
   5 O       3.0872929 *  1.1425896 *  4.3951242    4.3951242    0.0000000  
   6 O       3.0872929 *  4.3951242    1.1425896 *  4.3951242    5.3473482  
   7 O       3.0872929 *  4.3951242    4.3951242    1.1425896 *  5.3473482  
   8 C       2.0006139 *  2.7900406 *  2.7900406 *  2.7900406 *  3.6788359  
   9 C       2.0006139 *  2.7900406 *  2.7900406 *  2.7900406 *  3.6788359  
  10 O       3.1372476 *  3.6910965    3.6910965    3.6910965    4.4015565  
  11 O       3.1372476 *  3.6910965    3.6910965    3.6910965    4.4015565  

                6 O          7 O          8 C          9 C         10 O     

   1 FE      3.0872929 *  3.0872929 *  2.0006139 *  2.0006139 *  3.1372476 *
   2 C       4.3951242    4.3951242    2.7900406 *  2.7900406 *  3.6910965  
   3 C       1.1425896 *  4.3951242    2.7900406 *  2.7900406 *  3.6910965  
   4 C       4.3951242    1.1425896 *  2.7900406 *  2.7900406 *  3.6910965  
   5 O       5.3473482    5.3473482    3.6788359    3.6788359    4.4015565  
   6 O       0.0000000    5.3473482    3.6788359    3.6788359    4.4015565  
   7 O       5.3473482    0.0000000    3.6788359    3.6788359    4.4015565  
   8 C       3.6788359    3.6788359    0.0000000    4.0012278    1.1366337 *
   9 C       3.6788359    3.6788359    4.0012278    0.0000000    5.1378615  
  10 O       4.4015565    4.4015565    1.1366337 *  5.1378615    0.0000000  
  11 O       4.4015565    4.4015565    5.1378615    1.1366337 *  6.2744952  

               11 O     

   1 FE      3.1372476 *
   2 C       3.6910965  
   3 C       3.6910965  
   4 C       3.6910965  
   5 O       4.4015565  
   6 O       4.4015565  
   7 O       4.4015565  
   8 C       5.1378615  
   9 C       1.1366337 *
  10 O       6.2744952  
  11 O       0.0000000  

  * ... TRANSFORMED ATOM PAIR (LESS THAN   3.500 ANGS.)

 TIME TO DO  RELATIVISTIC INTS=      0.71
 ...... END OF ONE-ELECTRON INTEGRALS ......
 CPU     0: STEP CPU TIME=     0.77 TOTAL CPU TIME=          2.8 (      0.0 MIN)
 TOTAL WALL CLOCK TIME=          3.6 SECONDS, CPU UTILIZATION IS    78.43%

          -------------
          GUESS OPTIONS
          -------------
          GUESS =MOREAD            NORB  =     369          NORDER=       1
          MIX   =       F          PRTMO =       F          PUNMO =       F
          TOLZ  = 1.0E-08          TOLE  = 1.0E-05
          SYMDEN=       F          PURIFY=       T

 INITIAL GUESS ORBITALS GENERATED BY MOREAD   ROUTINE.

 STATISTICS FOR GENERATION OF SYMMETRY ORBITAL -Q- MATRIX
 NUMBER OF CARTESIAN ATOMIC ORBITALS=        435
 NUMBER OF SPHERICAL CONTAMINANTS DROPPED=    66
 NUMBER OF LINEARLY DEPENDENT MOS DROPPED=     0
 TOTAL NUMBER OF MOS IN VARIATION SPACE=     369
 ORBITAL PURIFICATION WILL OCCUR

 SYMMETRIES FOR INITIAL GUESS ORBITALS FOLLOW.   BOTH SET(S).
    48 ORBITALS ARE OCCUPIED (   19 CORE ORBITALS).
     1=A1'      2=A1'      3=E'       4=E'       5=A2"      6=A1'      7=E'  
     8=E'       9=A1'     10=A2"     11=A1'     12=E'      13=E'      14=A2" 
    15=A1'     16=A1'     17=E'      18=E'      19=A2"     20=A1'     21=E'  
    22=E'      23=A1'     24=A2"     25=A1'     26=E'      27=E'      28=A2" 
    29=A1'     30=A1'     31=A2"     32=E''     33=E''     34=E'      35=E'  
    36=E'      37=E'      38=A2'     39=E''     40=E''     41=E'      42=E'  
    43=A2"     44=A1'     45=E''     46=E''     47=E'      48=E'      49=A1' 
    50=E'      51=E'      52=E''     53=E''     54=A2"     55=A1'     56=A2' 
    57=E'      58=E'      59=E''     60=E''     61=E'      62=E'      63=A2" 
    64=A1'     65=A1'     66=A1'     67=E'      68=E'      69=E''     70=E'' 
    71=E'      72=E'      73=A1'     74=A2"     75=A2'     76=E''     77=E'' 
    78=E'      79=E'      80=A2"     81=A1'     82=E'      83=E'      84=E'  
    85=E'      86=E''     87=E''     88=A2"     89=A1'     90=A1'     91=A2" 
    92=A1"     93=E'      94=E'      95=E'      96=E'      97=E''     98=E'' 
    99=E'     100=E'     101=A1'    102=E''    103=E''    104=A2"    105=A2' 
   106=E''    107=E''    108=E'     109=E'     110=E'     111=E'     112=A2" 
   113=A1'    114=E'     115=E'     116=A1'    117=E''    118=E''    119=A2' 
   120=A1'    121=A1'    122=A2"    123=E'     124=E'     125=E'     126=E'  
   127=E''    128=E''    129=A2"    130=A1'    131=E'     132=E'     133=A2" 
   134=E''    135=E''    136=A1'    137=E'     138=E'     139=A1'    140=A1" 
   141=E'     142=E'     143=E''    144=E''    145=E''    146=E''    147=E'  
   148=E'     149=A1'    150=A1'    151=A2"    152=E'     153=E'     154=E'' 
   155=E''    156=A2'    157=E'     158=E'     159=A1'    160=A2"    161=E'' 
   162=E''    163=E'     164=E'     165=A2"    166=E''    167=E''    168=A1' 
   169=E'     170=E'     171=E'     172=E'     173=E''    174=E''    175=A2' 
   176=E'     177=E'     178=A1'    179=A2"    180=E''    181=E''    182=A2' 
   183=E'     184=E'     185=A2'    186=E''    187=E''    188=A1"    189=E'  
   190=E'     191=A2"    192=A1'    193=E'     194=E'     195=A2"    196=E'' 
   197=E''    198=A1'    199=A2'    200=A2"    201=A1'    202=E'     203=E'  
   204=A2"    205=A1"    206=E'     207=E'     208=E''    209=E''    210=A1" 
   211=A1'    212=E''    213=E''    214=E'     215=E'     216=E''    217=E'' 
   218=E'     219=E'     220=E''    221=E''    222=A2'    223=A1'    224=E'' 
   225=E''    226=E'     227=E'     228=A2"    229=E'     230=E'     231=E'' 
   232=E''    233=E'     234=E'     235=A1'    236=A1'    237=A2"    238=E'  
   239=E'     240=A1'    241=E'     242=E'     243=A2"    244=A1'    245=E'' 
   246=E''    247=E'     248=E'     249=A1'    250=A2"    251=E'     252=E'  
   253=A2'    254=E'     255=E'     256=A2"    257=E''    258=E''    259=A1' 
   260=A1'    261=A2"    262=E'     263=E'     264=A2'    265=E''    266=E'' 
   267=E'     268=E'     269=A2'    270=A2"    271=A1"    272=A1'    273=E'' 
   274=E''    275=A2"    276=A2'    277=E'     278=E'     279=E''    280=E'' 
   281=E'     282=E'     283=A2"    284=A1'    285=E'     286=E'     287=A1' 
   288=A2"    289=A1"    290=E'     291=E'     292=E''    293=E''    294=E'' 
   295=E''    296=E'     297=E'     298=A1'    299=A1'    300=A2"    301=E'  
   302=E'     303=E''    304=E''    305=A1"    306=E''    307=E''    308=E'  
   309=E'     310=E''    311=E''    312=A1'    313=E'     314=E'     315=A2' 
   316=A1"    317=E''    318=E''    319=E'     320=E'     321=E'     322=E'  
   323=A1'    324=A1'    325=A2"    326=E'     327=E'     328=A2"    329=E'  
   330=E'     331=E''    332=E''    333=E''    334=E''    335=A1'    336=E'  
   337=E'     338=A2'    339=E''    340=E''    341=E'     342=E'     343=A1' 
   344=A2"    345=E'     346=E'     347=A2"    348=A1'    349=E''    350=E'' 
   351=E''    352=E''    353=E'     354=E'     355=A2'    356=E'     357=E'  
   358=A1'    359=A2"    360=A1'    361=A1'    362=A2"    363=E'     364=E'  
   365=A1'    366=E'     367=E'     368=A2"    369=A1' 
 ...... END OF INITIAL ORBITAL SELECTION ......
 CPU     0: STEP CPU TIME=     2.78 TOTAL CPU TIME=          5.6 (      0.1 MIN)
 TOTAL WALL CLOCK TIME=          6.6 SECONDS, CPU UTILIZATION IS    85.06%

                    ----------------------
                    AO INTEGRAL TECHNOLOGY
                    ----------------------
     S,P,L SHELL ROTATED AXIS INTEGRALS, REPROGRAMMED BY
        KAZUYA ISHIMURA (IMS) AND JOSE SIERRA (SYNSTAR).
     S,P,D,L SHELL ROTATED AXIS INTEGRALS PROGRAMMED BY
        KAZUYA ISHIMURA (INSTITUTE FOR MOLECULAR SCIENCE).
     S,P,D,F,G SHELL TO TOTAL QUARTET ANGULAR MOMENTUM SUM 5,
        ERIC PROGRAM BY GRAHAM FLETCHER (ELORET AND NASA ADVANCED
        SUPERCOMPUTING DIVISION, AMES RESEARCH CENTER).
     S,P,D,F,G,L SHELL GENERAL RYS QUADRATURE PROGRAMMED BY
        MICHEL DUPUIS (PACIFIC NORTHWEST NATIONAL LABORATORY).

          --------------------
          2 ELECTRON INTEGRALS
          --------------------

 DIRECT SCF METHOD SKIPS INTEGRAL STORAGE ON DISK.
 DIRECT TRANSFORMATION SKIPS AO INTEGRAL STORAGE ON DISK.
  ...... END OF TWO-ELECTRON INTEGRALS .....
 CPU     0: STEP CPU TIME=     0.01 TOTAL CPU TIME=          5.6 (      0.1 MIN)
 TOTAL WALL CLOCK TIME=          6.6 SECONDS, CPU UTILIZATION IS    85.08%

          --------------------------
                 RHF SCF CALCULATION
          --------------------------

     NUCLEAR ENERGY =       758.9269559748
     MAXIT =  200     NPUNCH=    2
     EXTRAP=T  DAMP=F  SHIFT=F  RSTRCT=F  DIIS=T  DEM=F  SOSCF=F
     DENSITY MATRIX CONV=  2.00E-06
     MEMORY REQUIRED FOR RHF ITERS=   1460792 WORDS.

 DIRECT SCF CALCULATION, SCHWRZ=T   FDIFF=T,  DIRTHR=  0.00E+00 NITDIR=10
 SCHWARZ INEQUALITY OVERHEAD:     88393 INTEGRALS, T=        0.01

                                                                                   NONZERO     BLOCKS
 ITER EX DEM     TOTAL ENERGY        E CHANGE  DENSITY CHANGE    DIIS ERROR      INTEGRALS    SKIPPED
          * * *   INITIATING DIIS PROCEDURE   * * *
   1  0  0    -1834.9775179298 -1834.9775179298   1.094317508   0.170672319      223430661    1561824
   2  1  0    -1831.5456080646     3.4319098652   0.734874937   0.712224696      222538110    1615487
   3  2  0    -1835.2969368401    -3.7513287755   0.052950733   0.036779113      221668458    1642004
   4  3  0    -1835.3043211427    -0.0073843026   0.063594483   0.039994880      215525892    1808566
   5  4  0    -1835.3168202932    -0.0124991505   0.068172215   0.019262267      213508733    1843127
   6  5  0    -1835.3235746553    -0.0067543621   0.041037144   0.007987825      214315681    1834807
   7  6  0    -1835.3260958998    -0.0025212445   0.070855044   0.005219775      211234234    1895584
   8  7  0    -1835.3282262009    -0.0021303011   0.012718059   0.002156465      214183741    1845335
   9  8  0    -1835.3283019892    -0.0000757883   0.000821192   0.000486007      203896474    2009348
  10  9  0    -1835.3283061684    -0.0000041792   0.000372641   0.000246778      187289677    2187576
  11 10  0    -1835.3283071141    -0.0000009456   0.000508480   0.000199108      182186613    2248274
  12 11  0    -1835.3283074363    -0.0000003222   0.000072516   0.000048834      173875805    2351820
  13 12  0    -1835.3283074607    -0.0000000245   0.000035589   0.000018529      161862957    2497631
  14 13  0    -1835.3283074663    -0.0000000056   0.000016602   0.000004582      152152353    2576356
  15 14  0    -1835.3283074657     0.0000000007   0.000004638   0.000001241      136034903    2772315
  16 15  0    -1835.3283074655     0.0000000002   0.000000454   0.000000196      120800165    2906898
  17 16  0    -1835.3283074652     0.0000000003   0.000000281   0.000000121      101468856    3130673

          -----------------
          DENSITY CONVERGED
          -----------------
     TIME TO FORM FOCK OPERATORS=      46.8 SECONDS (       2.8 SEC/ITER)
     FOCK TIME ON FIRST ITERATION=       3.1, LAST ITERATION=       1.5
     TIME TO SOLVE SCF EQUATIONS=       1.6 SECONDS (       0.1 SEC/ITER)

 FINAL RHF ENERGY IS    -1835.3283074652 AFTER  17 ITERATIONS

          ------------
          EIGENVECTORS
          ------------

                      1          2          3          4          5
                 -263.6296   -32.3975   -27.4736   -27.4635   -27.4635
                     A1'        A1'        A2"        E'         E'  
    1  FE 1  S    0.997452  -0.320492  -0.000000  -0.000000  -0.000000
    2  FE 1  S    0.012077   1.049204  -0.000000  -0.000000  -0.000000
    3  FE 1  S    0.003893   0.029189  -0.000000  -0.000000  -0.000000
    4  FE 1  S   -0.007459  -0.015509  -0.000000  -0.000000  -0.000000
    5  FE 1  S    0.000859  -0.000362  -0.000000  -0.000000  -0.000000
    6  FE 1  S   -0.001529  -0.003595  -0.000000  -0.000000  -0.000000
    7  FE 1  S    0.001099   0.002673  -0.000000  -0.000000  -0.000000
    8  FE 1  S   -0.000051  -0.000175  -0.000000  -0.000000  -0.000000
    9  FE 1  X    0.000000   0.000000  -0.000000   0.997566  -0.000000
   10  FE 1  Y    0.000000   0.000000  -0.000000  -0.000000   0.997566
   11  FE 1  Z    0.000000   0.000000   0.997545  -0.000000  -0.000000
   12  FE 1  X    0.000000   0.000000  -0.000000   0.000146  -0.000000
   13  FE 1  Y    0.000000   0.000000  -0.000000  -0.000000   0.000146
   14  FE 1  Z    0.000000   0.000000   0.000352  -0.000000  -0.000000
   15  FE 1  X    0.000000   0.000000  -0.000000   0.009462  -0.000000
   16  FE 1  Y    0.000000   0.000000  -0.000000  -0.000000   0.009462
   17  FE 1  Z    0.000000   0.000000   0.009119  -0.000000  -0.000000
   18  FE 1  X    0.000000   0.000000  -0.000000  -0.003040  -0.000000
   19  FE 1  Y    0.000000   0.000000  -0.000000  -0.000000  -0.003040
   20  FE 1  Z    0.000000   0.000000  -0.002975  -0.000000  -0.000000
   21  FE 1  X    0.000000   0.000000  -0.000000   0.001971  -0.000000
   22  FE 1  Y    0.000000   0.000000  -0.000000  -0.000000   0.001971
   23  FE 1  Z    0.000000   0.000000   0.002001  -0.000000  -0.000000
   24  FE 1  X    0.000000   0.000000  -0.000000   0.001037  -0.000000
   25  FE 1  Y    0.000000   0.000000  -0.000000  -0.000000   0.001037
   26  FE 1  Z    0.000000   0.000000  -0.000731  -0.000000  -0.000000
   27  FE 1 XX   -0.000001  -0.000337  -0.000000  -0.000131  -0.000000
   28  FE 1 YY   -0.000001  -0.000337  -0.000000   0.000131  -0.000000
   29  FE 1 ZZ    0.000002   0.000673  -0.000000  -0.000000  -0.000000
   30  FE 1 XY    0.000000   0.000000  -0.000000  -0.000000   0.000151
   31  FE 1 XZ    0.000000   0.000000  -0.000000  -0.000000  -0.000000
   32  FE 1 YZ    0.000000   0.000000  -0.000000  -0.000000  -0.000000
   33  FE 1 XX   -0.000000   0.000297  -0.000000   0.000171  -0.000000
   34  FE 1 YY   -0.000000   0.000297  -0.000000  -0.000171  -0.000000
   35  FE 1 ZZ    0.000000  -0.000594  -0.000000  -0.000000  -0.000000
   36  FE 1 XY    0.000000   0.000000  -0.000000  -0.000000  -0.000198
   37  FE 1 XZ    0.000000   0.000000  -0.000000  -0.000000  -0.000000
   38  FE 1 YZ    0.000000   0.000000  -0.000000  -0.000000  -0.000000
   39  FE 1 XX    0.000014  -0.000142  -0.000000  -0.000340  -0.000000
   40  FE 1 YY    0.000014  -0.000142  -0.000000   0.000340  -0.000000
   41  FE 1 ZZ   -0.000029   0.000284  -0.000000  -0.000000  -0.000000
   42  FE 1 XY    0.000000   0.000000  -0.000000  -0.000000   0.000393
   43  FE 1 XZ    0.000000   0.000000  -0.000000  -0.000000  -0.000000
   44  FE 1 YZ    0.000000   0.000000  -0.000000  -0.000000  -0.000000
   45  FE 1 XX   -0.000055   0.000204  -0.000000   0.000846  -0.000000
   46  FE 1 YY   -0.000055   0.000204  -0.000000  -0.000846  -0.000000
   47  FE 1 ZZ    0.000109  -0.000408  -0.000000  -0.000000  -0.000000
   48  FE 1 XY    0.000000   0.000000  -0.000000  -0.000000  -0.000977
   49  FE 1 XZ    0.000000   0.000000  -0.000000  -0.000000  -0.000000
   50  FE 1 YZ    0.000000   0.000000  -0.000000  -0.000000  -0.000000
   51  FE 1 XXX   0.000008   0.000064  -0.000000  -0.000384  -0.000000
   52  FE 1 YYY   0.000000   0.000000  -0.000000  -0.000000  -0.000384
   53  FE 1 ZZZ   0.000000   0.000000  -0.000817  -0.000000  -0.000000
   54  FE 1 XXY   0.000000   0.000000  -0.000000  -0.000000  -0.000172
   55  FE 1 XXZ   0.000000   0.000000   0.000548  -0.000000  -0.000000
   56  FE 1 YYX  -0.000011  -0.000085  -0.000000  -0.000172  -0.000000
   57  FE 1 YYZ   0.000000   0.000000   0.000548  -0.000000  -0.000000
   58  FE 1 ZZX   0.000000   0.000000  -0.000000   0.000686  -0.000000
   59  FE 1 ZZY   0.000000   0.000000  -0.000000  -0.000000   0.000686
   60  FE 1 XYZ   0.000000   0.000000  -0.000000  -0.000000  -0.000000
   61  FE 1 XXX  -0.000054  -0.000207  -0.000000   0.000097  -0.000000
   62  FE 1 YYY   0.000000   0.000000  -0.000000  -0.000000   0.000097
   63  FE 1 ZZZ   0.000000   0.000000   0.000141  -0.000000  -0.000000
   64  FE 1 XXY   0.000000   0.000000  -0.000000  -0.000000   0.000043
   65  FE 1 XXZ   0.000000   0.000000  -0.000095  -0.000000  -0.000000
   66  FE 1 YYX   0.000072   0.000278  -0.000000   0.000043  -0.000000
   67  FE 1 YYZ   0.000000   0.000000  -0.000095  -0.000000  -0.000000
   68  FE 1 ZZX   0.000000   0.000000  -0.000000  -0.000174  -0.000000
   69  FE 1 ZZY   0.000000   0.000000  -0.000000  -0.000000  -0.000174
   70  FE 1 XYZ   0.000000   0.000000  -0.000000  -0.000000  -0.000000
   71  FE 1XXXX  -0.000006  -0.000089  -0.000000   0.000022  -0.000000
   72  FE 1YYYY  -0.000006  -0.000089  -0.000000   0.000007  -0.000000
   73  FE 1ZZZZ  -0.000015  -0.000237  -0.000000  -0.000000  -0.000000
   74  FE 1XXXY   0.000000   0.000000  -0.000000  -0.000000   0.000016
   75  FE 1XXXZ   0.000000   0.000000   0.000004  -0.000000  -0.000000
   76  FE 1YYYX   0.000000   0.000000  -0.000000  -0.000000  -0.000028
   77  FE 1YYYZ   0.000000   0.000000  -0.000000  -0.000000  -0.000000
   78  FE 1ZZZX   0.000000   0.000000  -0.000000  -0.000000  -0.000000
   79  FE 1ZZZY   0.000000   0.000000  -0.000000  -0.000000  -0.000000
   80  FE 1XXYY  -0.000003  -0.000052  -0.000000  -0.000025  -0.000000
   81  FE 1XXZZ   0.000013   0.000208  -0.000000  -0.000014  -0.000000
   82  FE 1YYZZ   0.000013   0.000208  -0.000000   0.000014  -0.000000
   83  FE 1XXYZ   0.000000   0.000000  -0.000000  -0.000000  -0.000000
   84  FE 1YYXZ   0.000000   0.000000  -0.000005  -0.000000  -0.000000
   85  FE 1ZZXY   0.000000   0.000000  -0.000000  -0.000000   0.000016
   86  C  2  S   -0.000015  -0.000048  -0.000000  -0.000025   0.000043
   87  C  2  S   -0.000118  -0.000414  -0.000000  -0.000152   0.000264
   88  C  2  S    0.000316   0.000933  -0.000000   0.000441  -0.000763
   89  C  2  S   -0.000009  -0.000123  -0.000000   0.000295  -0.000511
   90  C  2  X   -0.000006  -0.000032  -0.000000   0.000005   0.000008
   91  C  2  Y    0.000010   0.000055  -0.000000   0.000008  -0.000004
   92  C  2  Z    0.000000   0.000000   0.000003  -0.000000  -0.000000
   93  C  2  X    0.000029   0.000167  -0.000000   0.000041  -0.000051
   94  C  2  Y   -0.000051  -0.000289  -0.000000  -0.000051   0.000099
   95  C  2  Z    0.000000   0.000000   0.000007  -0.000000  -0.000000
   96  C  2  X   -0.000139  -0.000500  -0.000000   0.000287  -0.000386
   97  C  2  Y    0.000241   0.000866  -0.000000  -0.000386   0.000732
   98  C  2  Z    0.000000   0.000000   0.000036  -0.000000  -0.000000
   99  C  2 XX    0.000003   0.000011  -0.000000   0.000003   0.000000
  100  C  2 YY   -0.000013  -0.000055  -0.000000  -0.000001  -0.000003
  101  C  2 ZZ    0.000010   0.000044  -0.000000  -0.000001   0.000003
  102  C  2 XY    0.000015   0.000066  -0.000000  -0.000002  -0.000000
  103  C  2 XZ    0.000000   0.000000  -0.000002  -0.000000  -0.000000
  104  C  2 YZ    0.000000   0.000000   0.000003  -0.000000  -0.000000
  105  C  2 XX   -0.000015  -0.000046  -0.000000  -0.000012   0.000071
  106  C  2 YY    0.000077   0.000222  -0.000000   0.000114  -0.000249
  107  C  2 ZZ   -0.000062  -0.000175  -0.000000  -0.000103   0.000178
  108  C  2 XY   -0.000093  -0.000268  -0.000000  -0.000185   0.000286
  109  C  2 XZ    0.000000   0.000000  -0.000014  -0.000000  -0.000000
  110  C  2 YZ    0.000000   0.000000   0.000023  -0.000000  -0.000000
  111  C  2 XXX  -0.000020  -0.000096  -0.000000   0.000006  -0.000012
  112  C  2 YYY  -0.000017  -0.000071  -0.000000   0.000001  -0.000012
  113  C  2 ZZZ   0.000000   0.000000  -0.000002  -0.000000  -0.000000
  114  C  2 XXY  -0.000007  -0.000032  -0.000000   0.000008  -0.000001
  115  C  2 XXZ   0.000000   0.000000   0.000001  -0.000000  -0.000000
  116  C  2 YYX   0.000045   0.000202  -0.000000  -0.000015   0.000025
  117  C  2 YYZ   0.000000   0.000000   0.000002  -0.000000  -0.000000
  118  C  2 ZZX  -0.000017  -0.000073  -0.000000   0.000006  -0.000009
  119  C  2 ZZY   0.000030   0.000127  -0.000000  -0.000009   0.000017
  120  C  2 XYZ   0.000000   0.000000  -0.000001  -0.000000  -0.000000
  121  C  3  S   -0.000015  -0.000048  -0.000000  -0.000025  -0.000043
  122  C  3  S   -0.000118  -0.000414  -0.000000  -0.000152  -0.000264
  123  C  3  S    0.000316   0.000933  -0.000000   0.000441   0.000763
  124  C  3  S   -0.000009  -0.000123  -0.000000   0.000295   0.000511
  125  C  3  X   -0.000006  -0.000032  -0.000000   0.000005  -0.000008
  126  C  3  Y   -0.000010  -0.000055  -0.000000  -0.000008  -0.000004
  127  C  3  Z    0.000000   0.000000   0.000003  -0.000000  -0.000000
  128  C  3  X    0.000029   0.000167  -0.000000   0.000041   0.000051
  129  C  3  Y    0.000051   0.000289  -0.000000   0.000051   0.000099
  130  C  3  Z    0.000000   0.000000   0.000007  -0.000000  -0.000000
  131  C  3  X   -0.000139  -0.000500  -0.000000   0.000287   0.000386
  132  C  3  Y   -0.000241  -0.000866  -0.000000   0.000386   0.000732
  133  C  3  Z    0.000000   0.000000   0.000036  -0.000000  -0.000000
  134  C  3 XX    0.000003   0.000011  -0.000000   0.000003  -0.000000
  135  C  3 YY   -0.000013  -0.000055  -0.000000  -0.000001   0.000003
  136  C  3 ZZ    0.000010   0.000044  -0.000000  -0.000001  -0.000003
  137  C  3 XY   -0.000015  -0.000066  -0.000000   0.000002  -0.000000
  138  C  3 XZ    0.000000   0.000000  -0.000002  -0.000000  -0.000000
  139  C  3 YZ    0.000000   0.000000  -0.000003  -0.000000  -0.000000
  140  C  3 XX   -0.000015  -0.000046  -0.000000  -0.000012  -0.000071
  141  C  3 YY    0.000077   0.000222  -0.000000   0.000114   0.000249
  142  C  3 ZZ   -0.000062  -0.000175  -0.000000  -0.000103  -0.000178
  143  C  3 XY    0.000093   0.000268  -0.000000   0.000185   0.000286
  144  C  3 XZ    0.000000   0.000000  -0.000014  -0.000000  -0.000000
  145  C  3 YZ    0.000000   0.000000  -0.000023  -0.000000  -0.000000
  146  C  3 XXX  -0.000020  -0.000096  -0.000000   0.000006   0.000012
  147  C  3 YYY   0.000017   0.000071  -0.000000  -0.000001  -0.000012
  148  C  3 ZZZ   0.000000   0.000000  -0.000002  -0.000000  -0.000000
  149  C  3 XXY   0.000007   0.000032  -0.000000  -0.000008  -0.000001
  150  C  3 XXZ   0.000000   0.000000   0.000001  -0.000000  -0.000000
  151  C  3 YYX   0.000045   0.000202  -0.000000  -0.000015  -0.000025
  152  C  3 YYZ   0.000000   0.000000   0.000002  -0.000000  -0.000000
  153  C  3 ZZX  -0.000017  -0.000073  -0.000000   0.000006   0.000009
  154  C  3 ZZY  -0.000030  -0.000127  -0.000000   0.000009   0.000017
  155  C  3 XYZ   0.000000   0.000000   0.000001  -0.000000  -0.000000
  156  C  4  S   -0.000015  -0.000048  -0.000000   0.000050  -0.000000
  157  C  4  S   -0.000118  -0.000414  -0.000000   0.000305  -0.000000
  158  C  4  S    0.000316   0.000933  -0.000000  -0.000881  -0.000000
  159  C  4  S   -0.000009  -0.000123  -0.000000  -0.000590  -0.000000
  160  C  4  X    0.000011   0.000063  -0.000000  -0.000008  -0.000000
  161  C  4  Y    0.000000   0.000000  -0.000000  -0.000000   0.000010
  162  C  4  Z    0.000000   0.000000   0.000003  -0.000000  -0.000000
  163  C  4  X   -0.000059  -0.000333  -0.000000   0.000129  -0.000000
  164  C  4  Y    0.000000   0.000000  -0.000000  -0.000000   0.000011
  165  C  4  Z    0.000000   0.000000   0.000007  -0.000000  -0.000000
  166  C  4  X    0.000278   0.001000  -0.000000   0.000954  -0.000000
  167  C  4  Y    0.000000   0.000000  -0.000000  -0.000000   0.000064
  168  C  4  Z    0.000000   0.000000   0.000036  -0.000000  -0.000000
  169  C  4 XX   -0.000020  -0.000088  -0.000000  -0.000002  -0.000000
  170  C  4 YY    0.000010   0.000044  -0.000000  -0.000001  -0.000000
  171  C  4 ZZ    0.000010   0.000044  -0.000000   0.000003  -0.000000
  172  C  4 XY    0.000000   0.000000  -0.000000  -0.000000  -0.000003
  173  C  4 XZ    0.000000   0.000000   0.000004  -0.000000  -0.000000
  174  C  4 YZ    0.000000   0.000000  -0.000000  -0.000000  -0.000000
  175  C  4 XX    0.000123   0.000356  -0.000000  -0.000443  -0.000000
  176  C  4 YY   -0.000062  -0.000180  -0.000000   0.000237  -0.000000
  177  C  4 ZZ   -0.000062  -0.000175  -0.000000   0.000206  -0.000000
  178  C  4 XY    0.000000   0.000000  -0.000000  -0.000000  -0.000034
  179  C  4 XZ    0.000000   0.000000   0.000027  -0.000000  -0.000000
  180  C  4 YZ    0.000000   0.000000  -0.000000  -0.000000  -0.000000
  181  C  4 XXX  -0.000049  -0.000219  -0.000000  -0.000032  -0.000000
  182  C  4 YYY   0.000000   0.000000  -0.000000  -0.000000   0.000004
  183  C  4 ZZZ   0.000000   0.000000  -0.000002  -0.000000  -0.000000
  184  C  4 XXY   0.000000   0.000000  -0.000000  -0.000000  -0.000007
  185  C  4 XXZ   0.000000   0.000000   0.000003  -0.000000  -0.000000
  186  C  4 YYX   0.000032   0.000148  -0.000000   0.000021  -0.000000
  187  C  4 YYZ   0.000000   0.000000  -0.000000  -0.000000  -0.000000
  188  C  4 ZZX   0.000034   0.000146  -0.000000   0.000022  -0.000000
  189  C  4 ZZY   0.000000   0.000000  -0.000000  -0.000000   0.000001
  190  C  4 XYZ   0.000000   0.000000  -0.000000  -0.000000  -0.000000
  191  O  5  S   -0.000000  -0.000004  -0.000000   0.000003  -0.000004
  192  O  5  S    0.000009   0.000028  -0.000000   0.000014  -0.000025
  193  O  5  S    0.000012   0.000213  -0.000000  -0.000240   0.000416
  194  O  5  S   -0.000369  -0.001245  -0.000000   0.000275  -0.000476
  195  O  5  X   -0.000000  -0.000003  -0.000000  -0.000004  -0.000005
  196  O  5  Y    0.000000   0.000006  -0.000000  -0.000005   0.000002
  197  O  5  Z    0.000000   0.000000  -0.000000  -0.000000  -0.000000
  198  O  5  X    0.000015   0.000089  -0.000000  -0.000008   0.000037
  199  O  5  Y   -0.000025  -0.000154  -0.000000   0.000037  -0.000051
  200  O  5  Z    0.000000   0.000000  -0.000007  -0.000000  -0.000000
  201  O  5  X   -0.000050  -0.000155  -0.000000   0.000003  -0.000037
  202  O  5  Y    0.000086   0.000269  -0.000000  -0.000037   0.000046
  203  O  5  Z    0.000000   0.000000  -0.000030  -0.000000  -0.000000
  204  O  5 XX   -0.000001  -0.000004  -0.000000   0.000001  -0.000000
  205  O  5 YY    0.000004   0.000019  -0.000000  -0.000004   0.000006
  206  O  5 ZZ   -0.000003  -0.000015  -0.000000   0.000003  -0.000006
  207  O  5 XY   -0.000005  -0.000023  -0.000000   0.000004  -0.000007
  208  O  5 XZ    0.000000   0.000000   0.000001  -0.000000  -0.000000
  209  O  5 YZ    0.000000   0.000000  -0.000002  -0.000000  -0.000000
  210  O  5 XX   -0.000002  -0.000008  -0.000000   0.000000   0.000003
  211  O  5 YY    0.000010   0.000046  -0.000000   0.000013  -0.000025
  212  O  5 ZZ   -0.000008  -0.000038  -0.000000  -0.000013   0.000022
  213  O  5 XY   -0.000012  -0.000055  -0.000000  -0.000016   0.000026
  214  O  5 XZ    0.000000   0.000000  -0.000007  -0.000000  -0.000000
  215  O  5 YZ    0.000000   0.000000   0.000013  -0.000000  -0.000000
  216  O  5 XXX  -0.000005  -0.000019  -0.000000  -0.000002   0.000003
  217  O  5 YYY  -0.000004  -0.000015  -0.000000  -0.000002   0.000004
  218  O  5 ZZZ   0.000000   0.000000   0.000001  -0.000000  -0.000000
  219  O  5 XXY  -0.000002  -0.000007  -0.000000  -0.000002   0.000001
  220  O  5 XXZ   0.000000   0.000000  -0.000000  -0.000000  -0.000000
  221  O  5 YYX   0.000011   0.000041  -0.000000   0.000005  -0.000008
  222  O  5 YYZ   0.000000   0.000000  -0.000002  -0.000000  -0.000000
  223  O  5 ZZX  -0.000004  -0.000015  -0.000000  -0.000002   0.000004
  224  O  5 ZZY   0.000007   0.000026  -0.000000   0.000004  -0.000007
  225  O  5 XYZ   0.000000   0.000000   0.000001  -0.000000  -0.000000
  226  O  6  S   -0.000000  -0.000004  -0.000000   0.000003   0.000004
  227  O  6  S    0.000009   0.000028  -0.000000   0.000014   0.000025
  228  O  6  S    0.000012   0.000213  -0.000000  -0.000240  -0.000416
  229  O  6  S   -0.000369  -0.001245  -0.000000   0.000275   0.000476
  230  O  6  X   -0.000000  -0.000003  -0.000000  -0.000004   0.000005
  231  O  6  Y   -0.000000  -0.000006  -0.000000   0.000005   0.000002
  232  O  6  Z    0.000000   0.000000  -0.000000  -0.000000  -0.000000
  233  O  6  X    0.000015   0.000089  -0.000000  -0.000008  -0.000037
  234  O  6  Y    0.000025   0.000154  -0.000000  -0.000037  -0.000051
  235  O  6  Z    0.000000   0.000000  -0.000007  -0.000000  -0.000000
  236  O  6  X   -0.000050  -0.000155  -0.000000   0.000003   0.000037
  237  O  6  Y   -0.000086  -0.000269  -0.000000   0.000037   0.000046
  238  O  6  Z    0.000000   0.000000  -0.000030  -0.000000  -0.000000
  239  O  6 XX   -0.000001  -0.000004  -0.000000   0.000001   0.000000
  240  O  6 YY    0.000004   0.000019  -0.000000  -0.000004  -0.000006
  241  O  6 ZZ   -0.000003  -0.000015  -0.000000   0.000003   0.000006
  242  O  6 XY    0.000005   0.000023  -0.000000  -0.000004  -0.000007
  243  O  6 XZ    0.000000   0.000000   0.000001  -0.000000  -0.000000
  244  O  6 YZ    0.000000   0.000000   0.000002  -0.000000  -0.000000
  245  O  6 XX   -0.000002  -0.000008  -0.000000   0.000000  -0.000003
  246  O  6 YY    0.000010   0.000046  -0.000000   0.000013   0.000025
  247  O  6 ZZ   -0.000008  -0.000038  -0.000000  -0.000013  -0.000022
  248  O  6 XY    0.000012   0.000055  -0.000000   0.000016   0.000026
  249  O  6 XZ    0.000000   0.000000  -0.000007  -0.000000  -0.000000
  250  O  6 YZ    0.000000   0.000000  -0.000013  -0.000000  -0.000000
  251  O  6 XXX  -0.000005  -0.000019  -0.000000  -0.000002  -0.000003
  252  O  6 YYY   0.000004   0.000015  -0.000000   0.000002   0.000004
  253  O  6 ZZZ   0.000000   0.000000   0.000001  -0.000000  -0.000000
  254  O  6 XXY   0.000002   0.000007  -0.000000   0.000002   0.000001
  255  O  6 XXZ   0.000000   0.000000  -0.000000  -0.000000  -0.000000
  256  O  6 YYX   0.000011   0.000041  -0.000000   0.000005   0.000008
  257  O  6 YYZ   0.000000   0.000000  -0.000002  -0.000000  -0.000000
  258  O  6 ZZX  -0.000004  -0.000015  -0.000000  -0.000002  -0.000004
  259  O  6 ZZY  -0.000007  -0.000026  -0.000000  -0.000004  -0.000007
  260  O  6 XYZ   0.000000   0.000000  -0.000001  -0.000000  -0.000000
  261  O  7  S   -0.000000  -0.000004  -0.000000  -0.000005  -0.000000
  262  O  7  S    0.000009   0.000028  -0.000000  -0.000029  -0.000000
  263  O  7  S    0.000012   0.000213  -0.000000   0.000480  -0.000000
  264  O  7  S   -0.000369  -0.001245  -0.000000  -0.000550  -0.000000
  265  O  7  X    0.000000   0.000007  -0.000000   0.000005  -0.000000
  266  O  7  Y    0.000000   0.000000  -0.000000  -0.000000  -0.000007
  267  O  7  Z    0.000000   0.000000  -0.000000  -0.000000  -0.000000
  268  O  7  X   -0.000029  -0.000178  -0.000000  -0.000073  -0.000000
  269  O  7  Y    0.000000   0.000000  -0.000000  -0.000000   0.000014
  270  O  7  Z    0.000000   0.000000  -0.000007  -0.000000  -0.000000
  271  O  7  X    0.000100   0.000310  -0.000000   0.000068  -0.000000
  272  O  7  Y    0.000000   0.000000  -0.000000  -0.000000  -0.000018
  273  O  7  Z    0.000000   0.000000  -0.000030  -0.000000  -0.000000
  274  O  7 XX    0.000007   0.000031  -0.000000   0.000011  -0.000000
  275  O  7 YY   -0.000004  -0.000016  -0.000000  -0.000005  -0.000000
  276  O  7 ZZ   -0.000003  -0.000015  -0.000000  -0.000007  -0.000000
  277  O  7 XY    0.000000   0.000000  -0.000000  -0.000000  -0.000001
  278  O  7 XZ    0.000000   0.000000  -0.000002  -0.000000  -0.000000
  279  O  7 YZ    0.000000   0.000000  -0.000000  -0.000000  -0.000000
  280  O  7 XX    0.000016   0.000073  -0.000000  -0.000044  -0.000000
  281  O  7 YY   -0.000008  -0.000036  -0.000000   0.000018  -0.000000
  282  O  7 ZZ   -0.000008  -0.000038  -0.000000   0.000026  -0.000000
  283  O  7 XY    0.000000   0.000000  -0.000000  -0.000000  -0.000002
  284  O  7 XZ    0.000000   0.000000   0.000015  -0.000000  -0.000000
  285  O  7 YZ    0.000000   0.000000  -0.000000  -0.000000  -0.000000
  286  O  7 XXX  -0.000012  -0.000044  -0.000000   0.000011  -0.000000
  287  O  7 YYY   0.000000   0.000000  -0.000000  -0.000000  -0.000000
  288  O  7 ZZZ   0.000000   0.000000   0.000001  -0.000000  -0.000000
  289  O  7 XXY   0.000000   0.000000  -0.000000  -0.000000   0.000001
  290  O  7 XXZ   0.000000   0.000000  -0.000002  -0.000000  -0.000000
  291  O  7 YYX   0.000008   0.000030  -0.000000  -0.000006  -0.000000
  292  O  7 YYZ   0.000000   0.000000   0.000001  -0.000000  -0.000000
  293  O  7 ZZX   0.000008   0.000030  -0.000000  -0.000009  -0.000000
  294  O  7 ZZY   0.000000   0.000000  -0.000000  -0.000000  -0.000000
  295  O  7 XYZ   0.000000   0.000000  -0.000000  -0.000000  -0.000000
  296  C  8  S   -0.000007  -0.000027  -0.000036  -0.000000  -0.000000
  297  C  8  S   -0.000062  -0.000274  -0.000237  -0.000000  -0.000000
  298  C  8  S    0.000090   0.000276   0.000796  -0.000000  -0.000000
  299  C  8  S   -0.000030   0.000180  -0.000204  -0.000000  -0.000000
  300  C  8  X    0.000000   0.000000  -0.000000   0.000004  -0.000000
  301  C  8  Y    0.000000   0.000000  -0.000000  -0.000000   0.000004
  302  C  8  Z   -0.000006  -0.000039  -0.000016  -0.000000  -0.000000
  303  C  8  X    0.000000   0.000000  -0.000000  -0.000002  -0.000000
  304  C  8  Y    0.000000   0.000000  -0.000000  -0.000000  -0.000002
  305  C  8  Z    0.000027   0.000310   0.000060  -0.000000  -0.000000
  306  C  8  X    0.000000   0.000000  -0.000000   0.000011  -0.000000
  307  C  8  Y    0.000000   0.000000  -0.000000  -0.000000   0.000011
  308  C  8  Z   -0.000194  -0.000145  -0.000446  -0.000000  -0.000000
  309  C  8 XX    0.000009   0.000043   0.000002  -0.000001  -0.000000
  310  C  8 YY    0.000009   0.000043   0.000002   0.000001  -0.000000
  311  C  8 ZZ   -0.000019  -0.000086  -0.000005  -0.000000  -0.000000
  312  C  8 XY    0.000000   0.000000  -0.000000  -0.000000   0.000002
  313  C  8 XZ    0.000000   0.000000  -0.000000  -0.000006  -0.000000
  314  C  8 YZ    0.000000   0.000000  -0.000000  -0.000000  -0.000006
  315  C  8 XX   -0.000026  -0.000102  -0.000161  -0.000002  -0.000000
  316  C  8 YY   -0.000026  -0.000102  -0.000161   0.000002  -0.000000
  317  C  8 ZZ    0.000052   0.000203   0.000321  -0.000000  -0.000000
  318  C  8 XY    0.000000   0.000000  -0.000000  -0.000000   0.000002
  319  C  8 XZ    0.000000   0.000000  -0.000000  -0.000031  -0.000000
  320  C  8 YZ    0.000000   0.000000  -0.000000  -0.000000  -0.000031
  321  C  8 XXX   0.000000   0.000001   0.000000  -0.000009  -0.000000
  322  C  8 YYY   0.000000   0.000000  -0.000000  -0.000000  -0.000009
  323  C  8 ZZZ   0.000039   0.000156   0.000026  -0.000000  -0.000000
  324  C  8 XXY   0.000000   0.000000  -0.000000  -0.000000  -0.000004
  325  C  8 XXZ  -0.000026  -0.000104  -0.000017  -0.000012  -0.000000
  326  C  8 YYX  -0.000000  -0.000001  -0.000000  -0.000004  -0.000000
  327  C  8 YYZ  -0.000026  -0.000104  -0.000017   0.000012  -0.000000
  328  C  8 ZZX   0.000000   0.000000  -0.000000   0.000016  -0.000000
  329  C  8 ZZY   0.000000   0.000000  -0.000000  -0.000000   0.000016
  330  C  8 XYZ   0.000000   0.000000  -0.000000  -0.000000   0.000014
  331  C  9  S   -0.000007  -0.000027   0.000036  -0.000000  -0.000000
  332  C  9  S   -0.000062  -0.000274   0.000237  -0.000000  -0.000000
  333  C  9  S    0.000090   0.000276  -0.000796  -0.000000  -0.000000
  334  C  9  S   -0.000030   0.000180   0.000204  -0.000000  -0.000000
  335  C  9  X    0.000000   0.000000  -0.000000   0.000004  -0.000000
  336  C  9  Y    0.000000   0.000000  -0.000000  -0.000000   0.000004
  337  C  9  Z    0.000006   0.000039  -0.000016  -0.000000  -0.000000
  338  C  9  X    0.000000   0.000000  -0.000000  -0.000002  -0.000000
  339  C  9  Y    0.000000   0.000000  -0.000000  -0.000000  -0.000002
  340  C  9  Z   -0.000027  -0.000310   0.000060  -0.000000  -0.000000
  341  C  9  X    0.000000   0.000000  -0.000000   0.000011  -0.000000
  342  C  9  Y    0.000000   0.000000  -0.000000  -0.000000   0.000011
  343  C  9  Z    0.000194   0.000145  -0.000446  -0.000000  -0.000000
  344  C  9 XX    0.000009   0.000043  -0.000002  -0.000001  -0.000000
  345  C  9 YY    0.000009   0.000043  -0.000002   0.000001  -0.000000
  346  C  9 ZZ   -0.000019  -0.000086   0.000005  -0.000000  -0.000000
  347  C  9 XY    0.000000   0.000000  -0.000000  -0.000000   0.000002
  348  C  9 XZ    0.000000   0.000000  -0.000000   0.000006  -0.000000
  349  C  9 YZ    0.000000   0.000000  -0.000000  -0.000000   0.000006
  350  C  9 XX   -0.000026  -0.000102   0.000161  -0.000002  -0.000000
  351  C  9 YY   -0.000026  -0.000102   0.000161   0.000002  -0.000000
  352  C  9 ZZ    0.000052   0.000203  -0.000321  -0.000000  -0.000000
  353  C  9 XY    0.000000   0.000000  -0.000000  -0.000000   0.000002
  354  C  9 XZ    0.000000   0.000000  -0.000000   0.000031  -0.000000
  355  C  9 YZ    0.000000   0.000000  -0.000000  -0.000000   0.000031
  356  C  9 XXX   0.000000   0.000001  -0.000000  -0.000009  -0.000000
  357  C  9 YYY   0.000000   0.000000  -0.000000  -0.000000  -0.000009
  358  C  9 ZZZ  -0.000039  -0.000156   0.000026  -0.000000  -0.000000
  359  C  9 XXY   0.000000   0.000000  -0.000000  -0.000000  -0.000004
  360  C  9 XXZ   0.000026   0.000104  -0.000017   0.000012  -0.000000
  361  C  9 YYX  -0.000000  -0.000001   0.000000  -0.000004  -0.000000
  362  C  9 YYZ   0.000026   0.000104  -0.000017  -0.000012  -0.000000
  363  C  9 ZZX   0.000000   0.000000  -0.000000   0.000016  -0.000000
  364  C  9 ZZY   0.000000   0.000000  -0.000000  -0.000000   0.000016
  365  C  9 XYZ   0.000000   0.000000  -0.000000  -0.000000  -0.000014
  366  O 10  S   -0.000000  -0.000004   0.000002  -0.000000  -0.000000
  367  O 10  S    0.000007   0.000023   0.000018  -0.000000  -0.000000
  368  O 10  S    0.000032   0.000172  -0.000194  -0.000000  -0.000000
  369  O 10  S   -0.000209  -0.000305  -0.000545  -0.000000  -0.000000
  370  O 10  X    0.000000   0.000000  -0.000000   0.000002  -0.000000
  371  O 10  Y    0.000000   0.000000  -0.000000  -0.000000   0.000002
  372  O 10  Z   -0.000000  -0.000009   0.000003  -0.000000  -0.000000
  373  O 10  X    0.000000   0.000000  -0.000000  -0.000019  -0.000000
  374  O 10  Y    0.000000   0.000000  -0.000000  -0.000000  -0.000019
  375  O 10  Z    0.000027   0.000158  -0.000015  -0.000000  -0.000000
  376  O 10  X    0.000000   0.000000  -0.000000  -0.000020  -0.000000
  377  O 10  Y    0.000000   0.000000  -0.000000  -0.000000  -0.000020
  378  O 10  Z   -0.000046  -0.000040  -0.000179  -0.000000  -0.000000
  379  O 10 XX   -0.000003  -0.000011  -0.000001   0.000000  -0.000000
  380  O 10 YY   -0.000003  -0.000011  -0.000001  -0.000000  -0.000000
  381  O 10 ZZ    0.000005   0.000021   0.000002  -0.000000  -0.000000
  382  O 10 XY    0.000000   0.000000  -0.000000  -0.000000  -0.000000
  383  O 10 XZ    0.000000   0.000000  -0.000000   0.000001  -0.000000
  384  O 10 YZ    0.000000   0.000000  -0.000000  -0.000000   0.000001
  385  O 10 XX   -0.000007  -0.000040  -0.000009  -0.000003  -0.000000
  386  O 10 YY   -0.000007  -0.000040  -0.000009   0.000003  -0.000000
  387  O 10 ZZ    0.000013   0.000080   0.000018  -0.000000  -0.000000
  388  O 10 XY    0.000000   0.000000  -0.000000  -0.000000   0.000004
  389  O 10 XZ    0.000000   0.000000  -0.000000  -0.000018  -0.000000
  390  O 10 YZ    0.000000   0.000000  -0.000000  -0.000000  -0.000018
  391  O 10 XXX  -0.000000  -0.000000   0.000000   0.000003  -0.000000
  392  O 10 YYY   0.000000   0.000000  -0.000000  -0.000000   0.000003
  393  O 10 ZZZ   0.000009   0.000036   0.000010  -0.000000  -0.000000
  394  O 10 XXY   0.000000   0.000000  -0.000000  -0.000000   0.000001
  395  O 10 XXZ  -0.000006  -0.000024  -0.000007  -0.000003  -0.000000
  396  O 10 YYX   0.000000   0.000000  -0.000000   0.000001  -0.000000
  397  O 10 YYZ  -0.000006  -0.000024  -0.000007   0.000003  -0.000000
  398  O 10 ZZX   0.000000   0.000000  -0.000000  -0.000005  -0.000000
  399  O 10 ZZY   0.000000   0.000000  -0.000000  -0.000000  -0.000005
  400  O 10 XYZ   0.000000   0.000000  -0.000000  -0.000000   0.000003
  401  O 11  S   -0.000000  -0.000004  -0.000002  -0.000000  -0.000000
  402  O 11  S    0.000007   0.000023  -0.000018  -0.000000  -0.000000
  403  O 11  S    0.000032   0.000172   0.000194  -0.000000  -0.000000
  404  O 11  S   -0.000209  -0.000305   0.000545  -0.000000  -0.000000
  405  O 11  X    0.000000   0.000000  -0.000000   0.000002  -0.000000
  406  O 11  Y    0.000000   0.000000  -0.000000  -0.000000   0.000002
  407  O 11  Z    0.000000   0.000009   0.000003  -0.000000  -0.000000
  408  O 11  X    0.000000   0.000000  -0.000000  -0.000019  -0.000000
  409  O 11  Y    0.000000   0.000000  -0.000000  -0.000000  -0.000019
  410  O 11  Z   -0.000027  -0.000158  -0.000015  -0.000000  -0.000000
  411  O 11  X    0.000000   0.000000  -0.000000  -0.000020  -0.000000
  412  O 11  Y    0.000000   0.000000  -0.000000  -0.000000  -0.000020
  413  O 11  Z    0.000046   0.000040  -0.000179  -0.000000  -0.000000
  414  O 11 XX   -0.000003  -0.000011   0.000001   0.000000  -0.000000
  415  O 11 YY   -0.000003  -0.000011   0.000001  -0.000000  -0.000000
  416  O 11 ZZ    0.000005   0.000021  -0.000002  -0.000000  -0.000000
  417  O 11 XY    0.000000   0.000000  -0.000000  -0.000000  -0.000000
  418  O 11 XZ    0.000000   0.000000  -0.000000  -0.000001  -0.000000
  419  O 11 YZ    0.000000   0.000000  -0.000000  -0.000000  -0.000001
  420  O 11 XX   -0.000007  -0.000040   0.000009  -0.000003  -0.000000
  421  O 11 YY   -0.000007  -0.000040   0.000009   0.000003  -0.000000
  422  O 11 ZZ    0.000013   0.000080  -0.000018  -0.000000  -0.000000
  423  O 11 XY    0.000000   0.000000  -0.000000  -0.000000   0.000004
  424  O 11 XZ    0.000000   0.000000  -0.000000   0.000018  -0.000000
  425  O 11 YZ    0.000000   0.000000  -0.000000  -0.000000   0.000018
  426  O 11 XXX  -0.000000  -0.000000  -0.000000   0.000003  -0.000000
  427  O 11 YYY   0.000000   0.000000  -0.000000  -0.000000   0.000003
  428  O 11 ZZZ  -0.000009  -0.000036   0.000010  -0.000000  -0.000000
  429  O 11 XXY   0.000000   0.000000  -0.000000  -0.000000   0.000001
  430  O 11 XXZ   0.000006   0.000024  -0.000007   0.000003  -0.000000
  431  O 11 YYX   0.000000   0.000000   0.000000   0.000001  -0.000000
  432  O 11 YYZ   0.000006   0.000024  -0.000007  -0.000003  -0.000000
  433  O 11 ZZX   0.000000   0.000000  -0.000000  -0.000005  -0.000000
  434  O 11 ZZY   0.000000   0.000000  -0.000000  -0.000000  -0.000005
  435  O 11 XYZ   0.000000   0.000000  -0.000000  -0.000000  -0.000003

                      6          7          8          9         10
                  -20.7044   -20.7044   -20.6728   -20.6728   -20.6728
                     A1'        A2"        A1'        E'         E'  
    1  FE 1  S    0.000015  -0.000000   0.000018   0.000000  -0.000000
    2  FE 1  S    0.000149  -0.000000   0.000180   0.000000  -0.000000
    3  FE 1  S    0.000428  -0.000000   0.000527   0.000000  -0.000000
    4  FE 1  S   -0.000190  -0.000000  -0.000214   0.000000  -0.000000
    5  FE 1  S   -0.001287  -0.000000  -0.001691   0.000000  -0.000000
    6  FE 1  S    0.002316  -0.000000   0.002566   0.000000  -0.000000
    7  FE 1  S   -0.006096  -0.000000  -0.006501   0.000000  -0.000000
    8  FE 1  S   -0.001258  -0.000000  -0.001027   0.000000  -0.000000
    9  FE 1  X   -0.000000  -0.000000   0.000000  -0.000004  -0.000000
   10  FE 1  Y   -0.000000  -0.000000   0.000000   0.000000   0.000004
   11  FE 1  Z   -0.000000   0.000003   0.000000   0.000000  -0.000000
   12  FE 1  X   -0.000000  -0.000000   0.000000   0.000029  -0.000000
   13  FE 1  Y   -0.000000  -0.000000   0.000000   0.000000  -0.000029
   14  FE 1  Z   -0.000000  -0.000017   0.000000   0.000000  -0.000000
   15  FE 1  X   -0.000000  -0.000000   0.000000  -0.000021  -0.000000
   16  FE 1  Y   -0.000000  -0.000000   0.000000   0.000000   0.000021
   17  FE 1  Z   -0.000000  -0.000025   0.000000   0.000000  -0.000000
   18  FE 1  X   -0.000000  -0.000000   0.000000  -0.000407  -0.000000
   19  FE 1  Y   -0.000000  -0.000000   0.000000   0.000000   0.000407
   20  FE 1  Z   -0.000000   0.000435   0.000000   0.000000  -0.000000
   21  FE 1  X   -0.000000  -0.000000   0.000000   0.000828  -0.000000
   22  FE 1  Y   -0.000000  -0.000000   0.000000   0.000000  -0.000828
   23  FE 1  Z   -0.000000  -0.000504   0.000000   0.000000  -0.000000
   24  FE 1  X   -0.000000  -0.000000   0.000000   0.001572  -0.000000
   25  FE 1  Y   -0.000000  -0.000000   0.000000   0.000000  -0.001572
   26  FE 1  Z   -0.000000  -0.004026   0.000000   0.000000  -0.000000
   27  FE 1 XX   -0.000046  -0.000000   0.000026   0.000059  -0.000000
   28  FE 1 YY   -0.000046  -0.000000   0.000026  -0.000059  -0.000000
   29  FE 1 ZZ    0.000093  -0.000000  -0.000053   0.000000  -0.000000
   30  FE 1 XY   -0.000000  -0.000000   0.000000   0.000000   0.000068
   31  FE 1 XZ   -0.000000  -0.000000   0.000000   0.000000  -0.000000
   32  FE 1 YZ   -0.000000  -0.000000   0.000000   0.000000  -0.000000
   33  FE 1 XX    0.000156  -0.000000  -0.000086  -0.000198  -0.000000
   34  FE 1 YY    0.000156  -0.000000  -0.000086   0.000198  -0.000000
   35  FE 1 ZZ   -0.000312  -0.000000   0.000173   0.000000  -0.000000
   36  FE 1 XY   -0.000000  -0.000000   0.000000   0.000000  -0.000228
   37  FE 1 XZ   -0.000000  -0.000000   0.000000   0.000000  -0.000000
   38  FE 1 YZ   -0.000000  -0.000000   0.000000   0.000000  -0.000000
   39  FE 1 XX   -0.000613  -0.000000   0.000100   0.000576  -0.000000
   40  FE 1 YY   -0.000613  -0.000000   0.000100  -0.000576  -0.000000
   41  FE 1 ZZ    0.001226  -0.000000  -0.000201   0.000000  -0.000000
   42  FE 1 XY   -0.000000  -0.000000   0.000000   0.000000   0.000665
   43  FE 1 XZ   -0.000000  -0.000000   0.000000   0.000000  -0.000000
   44  FE 1 YZ   -0.000000  -0.000000   0.000000   0.000000  -0.000000
   45  FE 1 XX    0.000984  -0.000000   0.000330  -0.000080  -0.000000
   46  FE 1 YY    0.000984  -0.000000   0.000330   0.000080  -0.000000
   47  FE 1 ZZ   -0.001968  -0.000000  -0.000660   0.000000  -0.000000
   48  FE 1 XY   -0.000000  -0.000000   0.000000   0.000000  -0.000092
   49  FE 1 XZ   -0.000000  -0.000000   0.000000   0.000000  -0.000000
   50  FE 1 YZ   -0.000000  -0.000000   0.000000   0.000000  -0.000000
   51  FE 1 XXX   0.000010  -0.000000  -0.000068  -0.000026  -0.000000
   52  FE 1 YYY  -0.000000  -0.000000   0.000000   0.000000   0.000026
   53  FE 1 ZZZ  -0.000000   0.000086   0.000000   0.000000  -0.000000
   54  FE 1 XXY  -0.000000  -0.000000   0.000000   0.000000   0.000012
   55  FE 1 XXZ  -0.000000  -0.000058   0.000000   0.000000  -0.000000
   56  FE 1 YYX  -0.000013  -0.000000   0.000091  -0.000012  -0.000000
   57  FE 1 YYZ  -0.000000  -0.000058   0.000000   0.000000  -0.000000
   58  FE 1 ZZX  -0.000000  -0.000000   0.000000   0.000046  -0.000000
   59  FE 1 ZZY  -0.000000  -0.000000   0.000000   0.000000  -0.000046
   60  FE 1 XYZ  -0.000000  -0.000000   0.000000   0.000000  -0.000000
   61  FE 1 XXX  -0.000044  -0.000000   0.000377   0.000156  -0.000000
   62  FE 1 YYY  -0.000000  -0.000000   0.000000   0.000000  -0.000156
   63  FE 1 ZZZ  -0.000000  -0.000445   0.000000   0.000000  -0.000000
   64  FE 1 XXY  -0.000000  -0.000000   0.000000   0.000000  -0.000070
   65  FE 1 XXZ  -0.000000   0.000298   0.000000   0.000000  -0.000000
   66  FE 1 YYX   0.000060  -0.000000  -0.000506   0.000070  -0.000000
   67  FE 1 YYZ  -0.000000   0.000298   0.000000   0.000000  -0.000000
   68  FE 1 ZZX  -0.000000  -0.000000   0.000000  -0.000278  -0.000000
   69  FE 1 ZZY  -0.000000  -0.000000   0.000000   0.000000   0.000278
   70  FE 1 XYZ  -0.000000  -0.000000   0.000000   0.000000  -0.000000
   71  FE 1XXXX   0.000049  -0.000000   0.000021   0.000140  -0.000000
   72  FE 1YYYY   0.000049  -0.000000   0.000021   0.000034  -0.000000
   73  FE 1ZZZZ   0.000130  -0.000000   0.000056   0.000000  -0.000000
   74  FE 1XXXY  -0.000000  -0.000000   0.000000   0.000000  -0.000091
   75  FE 1XXXZ  -0.000000  -0.000007   0.000000   0.000000  -0.000000
   76  FE 1YYYX  -0.000000  -0.000000   0.000000   0.000000   0.000171
   77  FE 1YYYZ  -0.000000  -0.000000   0.000000   0.000000  -0.000000
   78  FE 1ZZZX  -0.000000  -0.000000   0.000000   0.000000  -0.000000
   79  FE 1ZZZY  -0.000000  -0.000000   0.000000   0.000000  -0.000000
   80  FE 1XXYY   0.000029  -0.000000   0.000012  -0.000152  -0.000000
   81  FE 1XXZZ  -0.000115  -0.000000  -0.000049  -0.000093  -0.000000
   82  FE 1YYZZ  -0.000115  -0.000000  -0.000049   0.000093  -0.000000
   83  FE 1XXYZ  -0.000000  -0.000000   0.000000   0.000000  -0.000000
   84  FE 1YYXZ  -0.000000   0.000009   0.000000   0.000000  -0.000000
   85  FE 1ZZXY  -0.000000  -0.000000   0.000000   0.000000  -0.000108
   86  C  2  S    0.000005  -0.000000  -0.000119   0.000064   0.000110
   87  C  2  S    0.000040  -0.000000   0.000184  -0.000240  -0.000416
   88  C  2  S   -0.000756  -0.000000   0.006337  -0.004642  -0.008040
   89  C  2  S    0.001135  -0.000000   0.001284   0.000351   0.000608
   90  C  2  X   -0.000010  -0.000000   0.000047  -0.000024  -0.000040
   91  C  2  Y    0.000017  -0.000000  -0.000082   0.000040   0.000071
   92  C  2  Z   -0.000000  -0.000009   0.000000   0.000000  -0.000000
   93  C  2  X    0.000123  -0.000000  -0.002215   0.001460   0.002538
   94  C  2  Y   -0.000214  -0.000000   0.003836  -0.002538  -0.004392
   95  C  2  Z   -0.000000  -0.000021   0.000000   0.000000  -0.000000
   96  C  2  X    0.000781  -0.000000  -0.000353   0.001116   0.002069
   97  C  2  Y   -0.001353  -0.000000   0.000611  -0.002069  -0.003505
   98  C  2  Z   -0.000000  -0.000188   0.000000   0.000000  -0.000000
[...]
                   Y  0.21363785 -0.00058122  0.00000077  0.00000047  0.00000642
                   Z -0.00000081  0.00001305  0.00001893  0.14477375  0.00062953
  5   O            X -0.02483931 -0.05485499  0.00935824 -0.00000265 -0.00000045
                   Y -0.02647928 -0.02461670 -0.01620768  0.00000370 -0.00000019
                   Z  0.00000155 -0.00000480  0.00000463  0.01924991 -0.03301358
  6   O            X  0.02454059 -0.05498952  0.00935837 -0.00000255  0.00000089
                   Y -0.02634474  0.02476008  0.01620754 -0.00000402 -0.00000032
                   Z -0.00000195 -0.00000417  0.00000462  0.01896130  0.03318024
  7   O            X -0.00003282 -0.01215287 -0.01870911 -0.00000013  0.00000013
                   Y -0.06917609  0.00018820  0.00000009 -0.00000024 -0.00000232
                   Z  0.00000033 -0.00000442 -0.00000503 -0.03822339 -0.00016663
  8   C            X  0.00004620  0.01680890 -0.00003331 -0.14787833 -0.00064242
                   Y  0.01681222 -0.00004623  0.00000004  0.00064242 -0.14788378
                   Z -0.00000004 -0.00000911 -0.11270284  0.00001584  0.00000006
  9   C            X  0.00004543  0.01680705  0.00002738  0.14788187  0.00064226
                   Y  0.01680760 -0.00004544  0.00000001 -0.00064227  0.14788441
                   Z -0.00000003 -0.00000384  0.11270815 -0.00002673 -0.00000010
 10   O            X -0.00003434 -0.01318607  0.00001473  0.04434029  0.00019348
                   Y -0.01318657  0.00003435  0.00000003 -0.00019348  0.04434285
                   Z -0.00000005 -0.00001171 -0.14489832  0.00002039  0.00000008
 11   O            X -0.00003581 -0.01318394 -0.00000409 -0.04433995 -0.00019252
                   Y -0.01318742  0.00003583  0.00000004  0.00019253 -0.04434386
                   Z -0.00000003 -0.00000447  0.14490498 -0.00003462 -0.00000013

 TRANS. SAYVETZ    X  0.00002306 -0.00164062  0.00007347  0.00003688  0.00002736
                   Y -0.00164051 -0.00002291  0.00000195 -0.00002707 -0.00000181
                   Z -0.00000003 -0.00001253 -0.00004042 -0.00008940 -0.00000051
               TOTAL  0.00164067  0.00164083  0.00008388  0.00010043  0.00002743

   ROT. SAYVETZ    X  0.00012200 -0.00015025 -0.00000002 -0.00004030  0.00175368
                   Y -0.00014882  0.00012328  0.00011840 -0.00157871 -0.00003951
                   Z  0.00004735 -0.00000012  0.00011643 -0.00000010  0.00001551
               TOTAL  0.00019817  0.00019435  0.00016606  0.00157922  0.00175419

                           26          27          28          29          30
       FREQUENCY:       804.43      922.45      922.46     1973.40     2055.77  
        SYMMETRY:         A2"         E'          E'          A2"         A1' 
    REDUCED MASS:     22.32530    15.46073    15.46060    13.27020    13.01316
    IR INTENSITY:      5.95731    44.29811    44.30059    14.50333     0.00000

  1   FE           X -0.00000076  0.00011825 -0.06852764 -0.00000001  0.00000057
                   Y -0.00000000 -0.06852868 -0.00011826 -0.00000000  0.00000000
                   Z  0.09769498 -0.00000000 -0.00000051 -0.00626613 -0.00000001
  2   C            X -0.00000000 -0.03725979 -0.01311434  0.00000009 -0.01443300
                   Y -0.00000034  0.03006430 -0.03722861 -0.00000021  0.02499875
                   Z -0.07746701  0.00000003  0.00000035 -0.00355391 -0.00000000
  3   C            X  0.00000032  0.03730493 -0.01298561  0.00000009 -0.01443299
                   Y  0.00000015  0.02993558  0.03733212  0.00000021 -0.02499877
                   Z -0.07746696  0.00000015  0.00000005 -0.00355391 -0.00000000
  4   C            X  0.00000049 -0.00008892  0.05152516 -0.00000049  0.02886643
                   Y  0.00000019 -0.03457357 -0.00005972 -0.00000000  0.00000001
                   Z -0.07746037 -0.00000018  0.00000306 -0.00355422  0.00000027
  5   O            X  0.00000020 -0.00903374  0.01465591 -0.00000007  0.00908658
                   Y -0.00000023  0.02509019 -0.00896266  0.00000013 -0.01573841
                   Z  0.01907539 -0.00000000 -0.00000009  0.00181063  0.00000000
  6   O            X  0.00000034  0.00898294  0.01468710 -0.00000008  0.00908659
                   Y  0.00000016  0.02505901  0.00904948 -0.00000012  0.01573842
                   Z  0.01907538 -0.00000024  0.00000033  0.00181063  0.00000000
  7   O            X  0.00000014 -0.00005241  0.03027514  0.00000071 -0.01817387
                   Y  0.00000008  0.00947174  0.00001640 -0.00000001  0.00000000
                   Z  0.01907423  0.00000024 -0.00000062  0.00181061  0.00000001
  8   C            X -0.00000206 -0.00027216  0.15783760  0.00000053 -0.00000040
                   Y  0.00000009  0.15783631  0.00027215 -0.00000000 -0.00000001
                   Z -0.05674804 -0.00000000  0.00000074  0.16085924  0.16561496
  9   C            X  0.00000396 -0.00027248  0.15783766 -0.00000043 -0.00000036
                   Y -0.00000008  0.15783618  0.00027248  0.00000000 -0.00000001
                   Z -0.05674666  0.00000000 -0.00000013  0.16085933 -0.16561464
 10   O            X  0.00000014  0.00006535 -0.03791070  0.00000032  0.00000009
                   Y -0.00000002 -0.03791003 -0.00006534  0.00000001  0.00000000
                   Z -0.06969117 -0.00000002 -0.00000027 -0.10843983 -0.09617222
 11   O            X -0.00000063  0.00006544 -0.03791112 -0.00000033  0.00000003
                   Y  0.00000002 -0.03790982 -0.00006543 -0.00000001 -0.00000000
                   Z -0.06968921  0.00000002  0.00000115 -0.10843986  0.09617208

 TRANS. SAYVETZ    X -0.00000715 -0.00000543  0.00094257  0.00000597  0.00001853
                   Y  0.00000001  0.00094047  0.00000559  0.00000001 -0.00000026
                   Z -0.00017730  0.00000002  0.00002813  0.00009428  0.00000445
               TOTAL  0.00017744  0.00094049  0.00094300  0.00009447  0.00001906

   ROT. SAYVETZ    X  0.00000163  0.00000008 -0.00002587  0.00000101  0.00000002
                   Y -0.00000022 -0.00002612 -0.00008282 -0.00007879 -0.00001582
                   Z  0.00004382  0.00006085  0.00000010 -0.00000265  0.00000142
               TOTAL  0.00004385  0.00006622  0.00008677  0.00007884  0.00001588

                           31          32          33
       FREQUENCY:      2099.41     2248.92     2248.92  
        SYMMETRY:         A1'         E'          E'  
    REDUCED MASS:     13.21222    13.25884    13.25884
    IR INTENSITY:      0.00000    30.89407    30.89440

  1   FE           X -0.00000021 -0.00000120 -0.00123735
                   Y -0.00000000 -0.00123763  0.00000120
                   Z -0.00000002 -0.00000000 -0.00000001
  2   C            X -0.06475074 -0.07444281  0.05490112
                   Y  0.11215154  0.14077734 -0.07463219
                   Z -0.00000001 -0.00000000  0.00000000
  3   C            X -0.06475073  0.07454893  0.05475691
                   Y -0.11215155  0.14092154  0.07435955
                   Z -0.00000001  0.00000000  0.00000000
  4   C            X  0.12950142  0.00017795  0.18385961
                   Y  0.00000001  0.01181879 -0.00001143
                   Z -0.00000005  0.00000000 -0.00000005
  5   O            X  0.04271762  0.05375461 -0.03268585
                   Y -0.07398909 -0.09468868  0.05387790
                   Z  0.00000001 -0.00000000  0.00000000
  6   O            X  0.04271762 -0.05381778 -0.03258174
                   Y  0.07398909 -0.09479279 -0.05369452
                   Z  0.00000001  0.00000000 -0.00000000
  7   O            X -0.08543511 -0.00012174 -0.12579420
                   Y -0.00000000 -0.00158030  0.00000153
                   Z  0.00000000 -0.00000000  0.00000001
  8   C            X  0.00000009 -0.00001858 -0.01942277
                   Y  0.00000000 -0.01942268  0.00001858
                   Z -0.03470522  0.00000000 -0.00000013
  9   C            X  0.00000020 -0.00001879 -0.01942299
                   Y  0.00000000 -0.01942255  0.00001879
                   Z  0.03470630 -0.00000000  0.00000092
 10   O            X -0.00000003  0.00000201  0.00214488
                   Y -0.00000000  0.00214486 -0.00000201
                   Z  0.02312070 -0.00000000  0.00000004
 11   O            X -0.00000030  0.00000207  0.00214467
                   Y -0.00000000  0.00214480 -0.00000208
                   Z -0.02312109  0.00000000 -0.00000016

 TRANS. SAYVETZ    X -0.00001174  0.00000076 -0.00055351
                   Y  0.00000004 -0.00056065 -0.00000080
                   Z  0.00000501  0.00000001  0.00000629
               TOTAL  0.00001276  0.00056065  0.00055354

   ROT. SAYVETZ    X  0.00000006 -0.00000067 -0.00000124
                   Y -0.00001719 -0.00000147 -0.00002501
                   Z  0.00000061 -0.00000003  0.00000000
               TOTAL  0.00001720  0.00000161  0.00002504

 REFERENCE ON SAYVETZ CONDITIONS - A. SAYVETZ, J.CHEM.PHYS., 7, 383-389(1939).

 NOTE - THE MODES J,K ARE ORTHONORMALIZED ACCORDING TO
 SUM ON I   M(I) * (X(I,J)*X(I,K) + Y(I,J)*Y(I,K) + Z(I,J)*Z(I,K)) = DELTA(J,K)

  MODE FREQ(CM**-1)  SYMMETRY  RED. MASS  IR INTENS.
     1       0.429    E'      17.608749    0.000004
     2       0.884    E'      17.414369    0.000004
     3       1.105    A2"     17.722060    0.000000
     4       1.865    E''     14.979081    0.000000
     5       2.147    E'      15.249247    0.000001
     6       2.352    A2"     15.085434    0.000000
     7      87.200    E'      16.670180    0.093841
     8      87.201    E'      16.669886    0.093884
     9      97.798    A2"     17.158889    0.005741
    10     115.603    E''     15.509015    0.000000
    11     115.611    E''     15.509019    0.000000
    12     148.092    E'      16.749595    0.655441
    13     148.104    E'      16.749637    0.655366
    14     439.107    A2'     12.682255    0.000000
    15     508.909    A1'     14.251123    0.000000
    16     520.406    E''     12.654258    0.000000
    17     520.414    E''     12.654219    0.000000
    18     577.612    E'      16.336259    1.716350
    19     577.614    E'      16.336322    1.716211
    20     602.062    A2"     13.331016    1.537364
    21     607.889    E'      12.774664    2.405192
    22     607.889    E'      12.774703    2.405183
    23     649.956    A1'     14.491967    0.000000
    24     660.243    E''     12.300904    0.000000
    25     660.243    E''     12.300920    0.000000
    26     804.430    A2"     22.325305    5.957306
    27     922.453    E'      15.460726   44.298114
    28     922.457    E'      15.460599   44.300590
    29    1973.401    A2"     13.270200   14.503326
    30    2055.774    A1'     13.013162    0.000000
    31    2099.409    A1'     13.212218    0.000000
    32    2248.916    E'      13.258839   30.894066
    33    2248.916    E'      13.258839   30.894398

     -------------------------------
     THERMOCHEMISTRY AT T=  298.15 K
     -------------------------------

 USING IDEAL GAS, RIGID ROTOR, HARMONIC NORMAL MODE APPROXIMATIONS.
 P=  1.01325E+05 PASCAL.
 ALL FREQUENCIES ARE SCALED BY   1.00000
 THE MOMENTS OF INERTIA ARE (IN AMU*BOHR**2)
   1858.87464  2094.35101  2094.35101
 THE ROTATIONAL SYMMETRY NUMBER IS  6.0
 THE ROTATIONAL CONSTANTS ARE (IN GHZ)
      0.96999     0.86093     0.86093
      7 -     33 VIBRATIONAL MODES ARE USED IN THERMOCHEMISTRY.
 THE HARMONIC ZERO POINT ENERGY IS (SCALED BY   1.000)
        0.047859 HARTREE/MOLECULE    10503.854092 CM**-1/MOLECULE 
       30.032056 KCAL/MOL              125.654122 KJ/MOL

               Q               LN Q
 ELEC.     1.00000E+00       0.000000
 TRANS.    1.07780E+08      18.495600
 ROT.      1.70359E+05      12.045662
 VIB.      1.10905E+03       7.011257
 TOT.      2.03635E+16      37.552519

              E         H         G         CV        CP        S
           KJ/MOL    KJ/MOL    KJ/MOL   J/MOL-K   J/MOL-K   J/MOL-K
 ELEC.      0.000     0.000     0.000     0.000     0.000     0.000
 TRANS.     3.718     6.197   -45.849    12.472    20.786   174.566
 ROT.       3.718     3.718   -29.860    12.472    12.472   112.624
 VIB.     144.712   144.712   108.274   117.809   117.809   122.213
 TOTAL    152.148   154.627    32.564   142.752   151.066   409.404
 VIB. THERMAL CORRECTION E(T)-E(0) = H(T)-H(0) = 19057.427 J/MOL

              E         H         G         CV        CP        S
         KCAL/MOL  KCAL/MOL  KCAL/MOL CAL/MOL-K CAL/MOL-K CAL/MOL-K
 ELEC.      0.000     0.000     0.000     0.000     0.000     0.000
 TRANS.     0.889     1.481   -10.958     2.981     4.968    41.722
 ROT.       0.889     0.889    -7.137     2.981     2.981    26.918
 VIB.      34.587    34.587    25.878    28.157    28.157    29.210
 TOTAL     36.364    36.957     7.783    34.119    36.106    97.850
 VIB. THERMAL CORRECTION E(T)-E(0) = H(T)-H(0) =  4554.834 CAL/MOL
 ......END OF NORMAL COORDINATE ANALYSIS......
 CPU     0: STEP CPU TIME=     0.02 TOTAL CPU TIME=      28338.7 (    472.3 MIN)
 TOTAL WALL CLOCK TIME=      29385.3 SECONDS, CPU UTILIZATION IS    96.44%

   1 warning(s) detected.
     A line exceeding 80 characters begins with " ! TURN ON THIS SECT".
 There may be a problem in your input file.

             26729585  WORDS OF DYNAMIC MEMORY USED
 EXECUTION OF GAMESS TERMINATED NORMALLY Sun Mar 17 05:45:54 2024
 DDI: 235964616 bytes (225.0 MB / 28 MWords) used by master data server.
Note: The following floating-point exceptions are signalling: IEEE_UNDERFLOW_FLAG IEEE_DENORMAL
Note: The following floating-point exceptions are signalling: IEEE_UNDERFLOW_FLAG IEEE_DENORMAL
Note: The following floating-point exceptions are signalling: IEEE_UNDERFLOW_FLAG IEEE_DENORMAL
Note: The following floating-point exceptions are signalling: IEEE_UNDERFLOW_FLAG IEEE_DENORMAL
Note: The following floating-point exceptions are signalling: IEEE_UNDERFLOW_FLAG IEEE_DENORMAL
Note: The following floating-point exceptions are signalling: IEEE_UNDERFLOW_FLAG IEEE_DENORMAL
Note: The following floating-point exceptions are signalling: IEEE_UNDERFLOW_FLAG IEEE_DENORMAL
Note: The following floating-point exceptions are signalling: IEEE_UNDERFLOW_FLAG IEEE_DENORMAL
Note: The following floating-point exceptions are signalling: IEEE_UNDERFLOW_FLAG IEEE_DENORMAL
Note: The following floating-point exceptions are signalling: IEEE_UNDERFLOW_FLAG IEEE_DENORMAL

 ----------------------------------------
 CPU timing information for all processes
 ========================================
 0: 28210.133 + 128.627 = 28338.761
 1: 28199.402 + 99.707 = 28299.110
 2: 28216.372 + 74.514 = 28290.887
 3: 28249.08 + 95.655 = 28344.663
 4: 28259.362 + 99.401 = 28358.763
 5: 28232.412 + 63.412 = 28295.825
 6: 28252.559 + 109.145 = 28361.705
 7: 28253.916 + 89.432 = 28343.349
 8: 28226.356 + 61.766 = 28288.123
 9: 28258.822 + 86.957 = 28345.779
 10: 28247.437 + 77.530 = 28324.967
 11: 28234.217 + 65.140 = 28299.357
 ----------------------------------------
Note: The following floating-point exceptions are signalling: IEEE_UNDERFLOW_FLAG IEEE_DENORMAL
Note: The following floating-point exceptions are signalling: IEEE_UNDERFLOW_FLAG IEEE_DENORMAL
 ddikick.x: exited gracefully.
unset echo
----- accounting info -----
Files used on the master node io003 were:
-rwxr-xr-x 1 bjb2chen nooijen   2603191 Mar 16 21:36 /home/bjb2chen/gmsscr//FeCO_SPK_rhf_D3h_mp2_mult1_diis_ghx3.F05*
-rw-r--r-- 1 bjb2chen nooijen  32294640 Mar 17 05:45 /home/bjb2chen/gmsscr//FeCO_SPK_rhf_D3h_mp2_mult1_diis_ghx3.F10
-rw-r--r-- 1 bjb2chen nooijen 346030080 Mar 17 05:43 /home/bjb2chen/gmsscr//FeCO_SPK_rhf_D3h_mp2_mult1_diis_ghx3.F30
-rw-r--r-- 1 bjb2chen nooijen 346030080 Mar 17 05:43 /home/bjb2chen/gmsscr//FeCO_SPK_rhf_D3h_mp2_mult1_diis_ghx3.F30.001
-rw-r--r-- 1 bjb2chen nooijen 346030080 Mar 17 05:43 /home/bjb2chen/gmsscr//FeCO_SPK_rhf_D3h_mp2_mult1_diis_ghx3.F30.002
-rw-r--r-- 1 bjb2chen nooijen 346030080 Mar 17 05:43 /home/bjb2chen/gmsscr//FeCO_SPK_rhf_D3h_mp2_mult1_diis_ghx3.F30.003
-rw-r--r-- 1 bjb2chen nooijen 346030080 Mar 17 05:43 /home/bjb2chen/gmsscr//FeCO_SPK_rhf_D3h_mp2_mult1_diis_ghx3.F30.004
-rw-r--r-- 1 bjb2chen nooijen 346030080 Mar 17 05:43 /home/bjb2chen/gmsscr//FeCO_SPK_rhf_D3h_mp2_mult1_diis_ghx3.F30.005
-rw-r--r-- 1 bjb2chen nooijen 346030080 Mar 17 05:43 /home/bjb2chen/gmsscr//FeCO_SPK_rhf_D3h_mp2_mult1_diis_ghx3.F30.006
-rw-r--r-- 1 bjb2chen nooijen 346030080 Mar 17 05:43 /home/bjb2chen/gmsscr//FeCO_SPK_rhf_D3h_mp2_mult1_diis_ghx3.F30.007
-rw-r--r-- 1 bjb2chen nooijen 346030080 Mar 17 05:43 /home/bjb2chen/gmsscr//FeCO_SPK_rhf_D3h_mp2_mult1_diis_ghx3.F30.008
-rw-r--r-- 1 bjb2chen nooijen 346030080 Mar 17 05:43 /home/bjb2chen/gmsscr//FeCO_SPK_rhf_D3h_mp2_mult1_diis_ghx3.F30.009
-rw-r--r-- 1 bjb2chen nooijen 346030080 Mar 17 05:43 /home/bjb2chen/gmsscr//FeCO_SPK_rhf_D3h_mp2_mult1_diis_ghx3.F30.010
-rw-r--r-- 1 bjb2chen nooijen 346030080 Mar 17 05:43 /home/bjb2chen/gmsscr//FeCO_SPK_rhf_D3h_mp2_mult1_diis_ghx3.F30.011
-rw-r--r-- 1 bjb2chen nooijen    571080 Mar 17 05:33 /home/bjb2chen/gmsscr//FeCO_SPK_rhf_D3h_mp2_mult1_diis_ghx3.F45
-rw-r--r-- 1 bjb2chen nooijen   1142160 Mar 17 05:33 /home/bjb2chen/gmsscr//FeCO_SPK_rhf_D3h_mp2_mult1_diis_ghx3.F45.001
-rw-r--r-- 1 bjb2chen nooijen   1142160 Mar 17 05:33 /home/bjb2chen/gmsscr//FeCO_SPK_rhf_D3h_mp2_mult1_diis_ghx3.F45.002
-rw-r--r-- 1 bjb2chen nooijen   1142160 Mar 17 05:33 /home/bjb2chen/gmsscr//FeCO_SPK_rhf_D3h_mp2_mult1_diis_ghx3.F45.003
-rw-r--r-- 1 bjb2chen nooijen   1142160 Mar 17 05:33 /home/bjb2chen/gmsscr//FeCO_SPK_rhf_D3h_mp2_mult1_diis_ghx3.F45.004
-rw-r--r-- 1 bjb2chen nooijen   1142160 Mar 17 05:33 /home/bjb2chen/gmsscr//FeCO_SPK_rhf_D3h_mp2_mult1_diis_ghx3.F45.005
-rw-r--r-- 1 bjb2chen nooijen   1142160 Mar 17 05:33 /home/bjb2chen/gmsscr//FeCO_SPK_rhf_D3h_mp2_mult1_diis_ghx3.F45.006
-rw-r--r-- 1 bjb2chen nooijen   1142160 Mar 17 05:33 /home/bjb2chen/gmsscr//FeCO_SPK_rhf_D3h_mp2_mult1_diis_ghx3.F45.007
-rw-r--r-- 1 bjb2chen nooijen   1142160 Mar 17 05:33 /home/bjb2chen/gmsscr//FeCO_SPK_rhf_D3h_mp2_mult1_diis_ghx3.F45.008
-rw-r--r-- 1 bjb2chen nooijen   1142160 Mar 17 05:33 /home/bjb2chen/gmsscr//FeCO_SPK_rhf_D3h_mp2_mult1_diis_ghx3.F45.009
-rw-r--r-- 1 bjb2chen nooijen   1142160 Mar 17 05:33 /home/bjb2chen/gmsscr//FeCO_SPK_rhf_D3h_mp2_mult1_diis_ghx3.F45.010
-rw-r--r-- 1 bjb2chen nooijen   1142160 Mar 17 05:33 /home/bjb2chen/gmsscr//FeCO_SPK_rhf_D3h_mp2_mult1_diis_ghx3.F45.011
-rw-r--r-- 1 bjb2chen nooijen    571080 Mar 17 05:33 /home/bjb2chen/gmsscr//FeCO_SPK_rhf_D3h_mp2_mult1_diis_ghx3.F46
-rw-r--r-- 1 bjb2chen nooijen   1142160 Mar 17 05:33 /home/bjb2chen/gmsscr//FeCO_SPK_rhf_D3h_mp2_mult1_diis_ghx3.F46.001
-rw-r--r-- 1 bjb2chen nooijen   1142160 Mar 17 05:33 /home/bjb2chen/gmsscr//FeCO_SPK_rhf_D3h_mp2_mult1_diis_ghx3.F46.002
-rw-r--r-- 1 bjb2chen nooijen   1142160 Mar 17 05:33 /home/bjb2chen/gmsscr//FeCO_SPK_rhf_D3h_mp2_mult1_diis_ghx3.F46.003
-rw-r--r-- 1 bjb2chen nooijen   1142160 Mar 17 05:33 /home/bjb2chen/gmsscr//FeCO_SPK_rhf_D3h_mp2_mult1_diis_ghx3.F46.004
-rw-r--r-- 1 bjb2chen nooijen   1142160 Mar 17 05:33 /home/bjb2chen/gmsscr//FeCO_SPK_rhf_D3h_mp2_mult1_diis_ghx3.F46.005
-rw-r--r-- 1 bjb2chen nooijen   1142160 Mar 17 05:33 /home/bjb2chen/gmsscr//FeCO_SPK_rhf_D3h_mp2_mult1_diis_ghx3.F46.006
-rw-r--r-- 1 bjb2chen nooijen   1142160 Mar 17 05:33 /home/bjb2chen/gmsscr//FeCO_SPK_rhf_D3h_mp2_mult1_diis_ghx3.F46.007
-rw-r--r-- 1 bjb2chen nooijen   1142160 Mar 17 05:33 /home/bjb2chen/gmsscr//FeCO_SPK_rhf_D3h_mp2_mult1_diis_ghx3.F46.008
-rw-r--r-- 1 bjb2chen nooijen   1142160 Mar 17 05:33 /home/bjb2chen/gmsscr//FeCO_SPK_rhf_D3h_mp2_mult1_diis_ghx3.F46.009
-rw-r--r-- 1 bjb2chen nooijen   1142160 Mar 17 05:33 /home/bjb2chen/gmsscr//FeCO_SPK_rhf_D3h_mp2_mult1_diis_ghx3.F46.010
-rw-r--r-- 1 bjb2chen nooijen   1142160 Mar 17 05:33 /home/bjb2chen/gmsscr//FeCO_SPK_rhf_D3h_mp2_mult1_diis_ghx3.F46.011
ls: No match.
ls: No match.
ls: No match.
Sun 17 Mar 2024 05:45:59 AM EDT
0.343u 0.782s 8:09:50.89 0.0%	0+0k 5088+5288io 0pf+0w
