SCRATCH DIRECTORY IS /localscratch/bjb2chen.29656334.0
----- GAMESS execution script 'rungms' -----
This job is running on host nc30425.narval.calcul.quebec
under operating system Linux at Mon 27 May 2024 03:01:31 PM EDT
Available scratch disk space (Kbyte units) at beginning of the job is
Filesystem        1K-blocks  Used Available Use% Mounted on
pool/localscratch 843894400 32384 843862016   1% /localscratch
GAMESS temporary binary files will be written to /localscratch/bjb2chen.29656334.0
GAMESS supplementary output files will be written to /scratch/bjb2chen/vibronics/8o9e/fastLagrangian/Apr26_redo_SOC
Copying input file FeCO_SPK_gmcpt_C1_17st_diab_0.05_+x7q15.inp to your run's scratch directory...
cp FeCO_SPK_gmcpt_C1_17st_diab_0.05_+x7q15.inp /localscratch/bjb2chen.29656334.0/FeCO_SPK_gmcpt_C1_17st_diab_0.05_+x7q15.F05
unset echo
 
Assuming a single but multicore node.
 
/home/bjb2chen/LOCAL/gamess.mrsftddft.fmo.180731/ddikick.x /home/bjb2chen/LOCAL/gamess.mrsftddft.fmo.180731/gamess.00.x FeCO_SPK_gmcpt_C1_17st_diab_0.05_+x7q15 -ddi 1 16 nc30425.narval.calcul.quebec:cpus=16 -scr /localscratch/bjb2chen.29656334.0

 Distributed Data Interface kickoff program.
 Initiating 16 compute processes on 1 nodes to run the following command:
 /home/bjb2chen/LOCAL/gamess.mrsftddft.fmo.180731/gamess.00.x FeCO_SPK_gmcpt_C1_17st_diab_0.05_+x7q15 

          ******************************************************
          *         GAMESS VERSION = 14 FEB 2018 (R1)         *
          *             FROM IOWA STATE UNIVERSITY             *
          * M.W.SCHMIDT, K.K.BALDRIDGE, J.A.BOATZ, S.T.ELBERT, *
          *   M.S.GORDON, J.H.JENSEN, S.KOSEKI, N.MATSUNAGA,   *
          *          K.A.NGUYEN, S.J.SU, T.L.WINDUS,           *
          *       TOGETHER WITH M.DUPUIS, J.A.MONTGOMERY       *
          *         J.COMPUT.CHEM.  14, 1347-1363(1993)        *
          **************** 64 BIT INTEL VERSION ****************

  SINCE 1993, STUDENTS AND POSTDOCS WORKING AT IOWA STATE UNIVERSITY
  AND ALSO IN THEIR VARIOUS JOBS AFTER LEAVING ISU HAVE MADE IMPORTANT
  CONTRIBUTIONS TO THE CODE:
     IVANA ADAMOVIC, CHRISTINE AIKENS, YURI ALEXEEV, POOJA ARORA,
     ANDREY ASADCHEV, ROB BELL, PRADIPTA BANDYOPADHYAY, JONATHAN BENTZ,
     BRETT BODE, KURT BRORSEN, CALEB CARLIN, GALINA CHABAN, WEI CHEN,
     CHEOL HO CHOI, PAUL DAY, ALBERT DEFUSCO, NUWAN DESILVA, TIM DUDLEY,
     DMITRI FEDOROV, ALEX FINDLATER, GRAHAM FLETCHER, MARK FREITAG,
     KURT GLAESEMANN, ANASTASIA GUININA,
     DAN KEMP, GRANT MERRILL, NORIYUKI MINEZAWA, JONATHAN MULLIN,
     TAKESHI NAGATA, SEAN NEDD, HEATHER NETZLOFF, BOSILJKA NJEGIC, RYAN OLSON,
     MIKE PAK, BUU PHAM,
     SPENCER PRUITT, LUKE ROSKOP, JIM SHOEMAKER, LYUDMILA SLIPCHENKO,
     TONY SMITH, SAROM SOK LEANG, JIE SONG, TETSUYA TAKETSUGU, SIMON WEBB,
     PENG XU, SOOHAENG YOO, FEDERICO ZAHARIEV

  ADDITIONAL CODE HAS BEEN PROVIDED BY COLLABORATORS IN OTHER GROUPS:
     IOWA STATE UNIVERSITY:
          JOE IVANIC, AARON WEST, LAIMUTIS BYTAUTAS, KLAUS RUEDENBERG
     UNIVERSITY OF TOKYO: KIMIHIKO HIRAO, TAKAHITO NAKAJIMA,
          TAKAO TSUNEDA, MUNEAKI KAMIYA, SUSUMU YANAGISAWA,
          KIYOSHI YAGI, MAHITO CHIBA, SEIKEN TOKURA, NAOAKI KAWAKAMI
     UNIVERSITY OF AARHUS: FRANK JENSEN
     UNIVERSITY OF IOWA: VISVALDAS KAIRYS, HUI LI
     NATIONAL INST. OF STANDARDS AND TECHNOLOGY: WALT STEVENS, DAVID GARMER
     UNIVERSITY OF PISA: BENEDETTA MENNUCCI, JACOPO TOMASI
     UNIVERSITY OF MEMPHIS: HENRY KURTZ, PRAKASHAN KORAMBATH
     UNIVERSITY OF ALBERTA: TOBY ZENG, MARIUSZ KLOBUKOWSKI
     UNIVERSITY OF NEW ENGLAND: MARK SPACKMAN
     MIE UNIVERSITY: HIROAKI UMEDA
     NAT. INST. OF ADVANCED INDUSTRIAL SCIENCE AND TECHNOLOGY: KAZUO KITAURA
     MICHIGAN STATE UNIVERSITY:
          KAROL KOWALSKI, MARTA WLOCH, JEFFREY GOUR, JESSE LUTZ,
          WEI LI, PIOTR PIECUCH
     UNIVERSITY OF SILESIA: MONIKA MUSIAL, STANISLAW KUCHARSKI
     FACULTES UNIVERSITAIRES NOTRE-DAME DE LA PAIX:
          OLIVIER QUINET, BENOIT CHAMPAGNE
     UNIVERSITY OF CALIFORNIA - SANTA BARBARA: BERNARD KIRTMAN
     INSTITUTE FOR MOLECULAR SCIENCE:
          KAZUYA ISHIMURA, MICHIO KATOUDA, AND SHIGERU NAGASE
     UNIVERSITY OF NOTRE DAME: ANNA POMOGAEVA, DAN CHIPMAN
     KYUSHU UNIVERSITY:
          HARUYUKI NAKANO,
          FENG LONG GU, JACEK KORCHOWIEC, MARCIN MAKOWSKI, AND YURIKO AOKI,
          HIROTOSHI MORI AND EISAKU MIYOSHI
     PENNSYLVANIA STATE UNIVERSITY:
          TZVETELIN IORDANOV, CHET SWALINA, JONATHAN SKONE,
          SHARON HAMMES-SCHIFFER
     WASEDA UNIVERSITY:
          MASATO KOBAYASHI, TOMOKO AKAMA, TSUGUKI TOUMA,
          TAKESHI YOSHIKAWA, YASUHIRO IKABATA, JUNJI SEINO,
          YUYA NAKAJIMA, HIROMI NAKAI
     NANJING UNIVERSITY: SHUHUA LI
     UNIVERSITY OF NEBRASKA:
          PEIFENG SU, DEJUN SI, NANDUN THELLAMUREGE, YALI WANG, HUI LI
     UNIVERSITY OF ZURICH: ROBERTO PEVERATI, KIM BALDRIDGE
     N. COPERNICUS UNIVERSITY AND JACKSON STATE UNIVERSITY:
          MARIA BARYSZ
     UNIVERSITY OF COPENHAGEN: Jimmy Kromann, CASPER STEINMANN
     TOKYO INSTITUTE OF TECHNOLOGY: HIROYA NAKATA
     NAGOYA UNIVERSITY: YOSHIO NISHIMOTO, STEPHAN IRLE
     MOSCOW STATE UNIVERSITY: VLADIMIR MIRONOV


 PARALLEL VERSION RUNNING ON       16 PROCESSORS IN        1 NODES.

 EXECUTION OF GAMESS BEGUN Mon May 27 15:01:32 2024

            ECHO OF THE FIRST FEW INPUT CARDS -
 INPUT CARD> !############################################################################# 
 INPUT CARD> !                   D_3h RHF GEOMETRY OPTIMIZATION AND HESSIAN TEMPLATE        
 INPUT CARD> ! ---------------------------------------------------------------------------  
 INPUT CARD> ! Replace the symmetry-correct coordinates, should only be two atoms.          
 INPUT CARD> ! The hydrogen or fluorine should have only one non-zero x,y,z coordinate.     
 INPUT CARD> !                                                                              
 INPUT CARD> ! Basis set?   gbasis=ccd for 2nd row,                                         
 INPUT CARD> !                         cct 3rd/4th,                                         
 INPUT CARD> !                   SPKrTZP for heavy,                                         
 INPUT CARD> !                   SPKrTZC beyond 4th                                         
 INPUT CARD> !                                                                              
 INPUT CARD> !############################################################################# 
 INPUT CARD> $system kdiag=3 mwords=500 memddi=3000 parall=.t. $end                         
 INPUT CARD> $contrl runtyp=energy ispher=1 $end                                            
 INPUT CARD> $contrl icut=9 itol=20 inttyp=rysquad qmttol=1.0d-05 nosym=1 $end              
 INPUT CARD> $contrl scftyp=mcscf  mult=3 maxit=200 icharg=0 mplevl=2 $end                  
 INPUT CARD> $scf    npunch=2 conv=1.0d-06 dirscf=.t. $end                                  
 INPUT CARD> $force  method=seminum $end                                                    
 INPUT CARD> $trans  dirtrf=.t. $end                                                        
 INPUT CARD> $statpt hssend=.t. $end                                                        
 INPUT CARD> $basis  gbasis=SPKrTZP $end                                                    
 INPUT CARD> !############################################################################# 
 INPUT CARD> !                                                                              
 INPUT CARD> !                       TURN ON THIS SECTION IF HEAVY ATOM                     
 INPUT CARD> !                                                                              
 INPUT CARD> !############################################################################# 
 INPUT CARD> !                                                                              
 INPUT CARD> $contrl relwfn=LUT-IOTC $end                                                   
 INPUT CARD> $scf  diis=.t. soscf=.f. ethrsh=10.0 $end                                      
 INPUT CARD> -guess iorder(43)=44 iorder(44)=43 $end                                        
 INPUT CARD> $gmcpt nsolut=100 $end                                                         
 INPUT CARD> !                                                                              
 INPUT CARD> !############################################################################# 
 INPUT CARD> !                                                                              
 INPUT CARD> ! TURN ON THIS SECTION IF GMCPT, CHANGE runtyp=energy, scftyp=mcscf, change nos
 INPUT CARD> !                                                                              
 INPUT CARD> !############################################################################# 
 INPUT CARD> $guess  guess=moread norb=369 purify=.t. norder=1 $end                         
 INPUT CARD> $mcscf  cistep=gmcci fullnr=.t. finci=mos                                      
 INPUT CARD>         acurcy=1.d-5 maxit=200 $end                                            
 INPUT CARD> $mrmp   mrpt=gmcpt rdvecs=.f. $end                                             
 INPUT CARD> $gmcpt  nmofzc=19 nmodoc=24 nmoact=8 nelact=10 stsym(1)=A                      
 INPUT CARD>         reftyp=ormas nspace=1 mstart(1)=44 mine(1)=10 maxe(1)=10               
 INPUT CARD>         kstate(1)=1,1,1,1,1,1,1,1,1,1,1,1,1,1,1,1,1                            
 INPUT CARD>         wstate(1)=3,1,1,1,1,1,1,1,1,1,1,1,1,3,3,3,3                            
 INPUT CARD>         iwgt=0 thrwgt=-1.0 krot=.f. kszdoe=.f. knospn=.t.                      
 INPUT CARD>         thrde=-1.0 edshft=0.02 maxbas=8000 $end                                
 INPUT CARD> $transt $end                                                                   
 INPUT CARD> !############################################################################# 
 INPUT CARD> !                                                                              
  500000000 WORDS OF MEMORY AVAILABLE

     $BASIS REQUESTS READING THE "SPKRTZP " BASIS SET FROM AN EXTERNAL FILE


     RUN TITLE
     ---------
  FeCO diabatization                                                             

 THE POINT GROUP OF THE MOLECULE IS C1      
 THE ORDER OF THE PRINCIPAL AXIS IS     0

 THE EXTERNAL BASIS SET FILE BEING READ IS
     "/home/bjb2chen/LOCAL/gamess.mrsftddft.fmo.180731/auxdata/BASES/SPKRTZP"

 ATOM      ATOMIC                      COORDINATES (BOHR)
           CHARGE         X                   Y                   Z
 FE         26.0     0.0000006895        0.0000000000        0.0000000562
 C           6.0    -1.6760870661        2.9030654704       -0.0000001328
 C           6.0    -1.6760869776       -2.9030655233       -0.0000001124
 C           6.0     3.3521681432        0.0000000528        0.0000007371
 O           8.0    -2.7661807534        4.7911662768        0.0000000460
 O           8.0    -2.7661807496       -4.7911662806        0.0000000375
 O           8.0     5.5323574780        0.0000000034       -0.0000003115
 C           6.0     0.0000012410       -0.0000000085       -3.1742659259
 C           6.0     0.0000007882        0.0000000102        3.1742657879
 O           8.0    -0.0000002690        0.0000000068       -5.3768578318
 O           8.0    -0.0000000885       -0.0000000051        5.3768577184

          INTERNUCLEAR DISTANCES (ANGS.)
          ------------------------------

                1 FE         2 C          3 C          4 C          5 O     

   1 FE      0.0000000    1.7738933 *  1.7738933 *  1.7738908 *  2.9276003 *
   2 C       1.7738933 *  0.0000000    3.0724724    3.0724716    1.1537070 *
   3 C       1.7738933 *  3.0724724    0.0000000    3.0724716    4.1122727  
   4 C       1.7738908 *  3.0724716    3.0724716    0.0000000    4.1122713  
   5 O       2.9276003 *  1.1537070 *  4.1122727    4.1122713    0.0000000  
   6 O       2.9276003 *  4.1122727    1.1537070 *  4.1122714    5.0707524  
   7 O       2.9275973 *  4.1122712    4.1122711    1.1537066 *  5.0707500  
   8 C       1.6797493 *  2.4430013 *  2.4430014 *  2.4429995 *  3.3752633  
   9 C       1.6797492 *  2.4430013 *  2.4430013 *  2.4429991 *  3.3752631  
  10 O       2.8453109 *  3.3529823    3.3529823    3.3529817    4.0824792  
  11 O       2.8453107 *  3.3529824    3.3529823    3.3529809    4.0824791  

                6 O          7 O          8 C          9 C         10 O     

   1 FE      2.9276003 *  2.9275973 *  1.6797493 *  1.6797492 *  2.8453109 *
   2 C       4.1122727    4.1122712    2.4430013 *  2.4430013 *  3.3529823  
   3 C       1.1537070 *  4.1122711    2.4430014 *  2.4430013 *  3.3529823  
   4 C       4.1122714    1.1537066 *  2.4429995 *  2.4429991 *  3.3529817  
   5 O       5.0707524    5.0707500    3.3752633    3.3752631    4.0824792  
   6 O       0.0000000    5.0707500    3.3752633    3.3752631    4.0824792  
   7 O       5.0707500    0.0000000    3.3752602    3.3752606    4.0824774  
   8 C       3.3752633    3.3752602    0.0000000    3.3594985    1.1655615 *
   9 C       3.3752631    3.3752606    3.3594985    0.0000000    4.5250601  
  10 O       4.0824792    4.0824774    1.1655615 *  4.5250601    0.0000000  
  11 O       4.0824791    4.0824776    4.5250601    1.1655615 *  5.6906216  

               11 O     

   1 FE      2.8453107 *
   2 C       3.3529824  
   3 C       3.3529823  
   4 C       3.3529809  
   5 O       4.0824791  
   6 O       4.0824791  
   7 O       4.0824776  
   8 C       4.5250601  
   9 C       1.1655615 *
  10 O       5.6906216  
  11 O       0.0000000  

  * ... LESS THAN  3.000


     ATOMIC BASIS SET
     ----------------
 THE CONTRACTED PRIMITIVE FUNCTIONS HAVE BEEN UNNORMALIZED
 THE CONTRACTED BASIS FUNCTIONS ARE NOW NORMALIZED TO UNITY

  SHELL TYPE  PRIMITIVE        EXPONENT          CONTRACTION COEFFICIENT(S)

 FE        

      1   S       1       1100791.5305010    0.000473999976
      1   S       2        111958.3587060    0.002184999889
      1   S       3         19185.3576710    0.008689999559
      1   S       4          4445.3037100    0.032685998341
      1   S       5          1266.9965100    0.110141994410
      1   S       6           416.6310290    0.284031985586
      1   S       7           150.8643160    0.454264876947
      1   S       8            56.3399190    0.263064986650

      2   S       9           359.6946140   -0.022463999939
      2   S      10           108.1698330   -0.110348999698
      2   S      11            16.2239570    0.581708898408
      2   S      12             6.5680420    0.504839898618

      3   S      13            10.7418790   -0.362092191734
      3   S      14             1.7503840    1.164823573408

      4   S      15             2.5115960    1.000000000000

      5   S      16             0.7053330    1.000000000000

      6   S      17             0.3621190    1.000000000000

      7   S      18             0.1098870    1.000000000000

      8   S      19             0.0389760    1.000000000000

      9   P      20          3763.5373930    0.001033999945
      9   P      21           777.6255800    0.008099999572
      9   P      22           235.1625800    0.042150997771
      9   P      23            85.2386240    0.150979992017
      9   P      24            34.2178420    0.344345981793
      9   P      25            14.4530580    0.445691976434
      9   P      26             6.0108430    0.197984989532

     10   P      27            29.2356570   -0.050671998602
     10   P      28             3.8658850    1.015612071978

     11   P      29             1.5321320    1.000000000000

     12   P      30             0.6880240    1.000000000000

     13   P      31             0.3377060    1.000000000000

     14   P      32             0.1058510    1.000000000000

     15   D      33           153.1499290    0.002483999928
     15   D      34            39.2185330    0.024814999278
     15   D      35            13.1241220    0.112497096729
     15   D      36             4.9420130    0.294331191441
     15   D      37             1.9182510    0.436439287309
     15   D      38             0.7263080    0.400155288364

     16   D      39             1.2013780    1.000000000000

     17   D      40             0.4134800    1.000000000000

     18   D      41             0.2769570    0.803321387841
     18   D      42             0.1024240    0.267279095955

     19   F      43             7.1173700    0.248360909500
     19   F      44             2.0161170    0.867482733183

     20   F      45             0.5734880    1.000000000000

     21   G      46             3.1098950    0.428615975933
     21   G      47             0.8477510    0.770538956734

 C         

     22   S      48          2806.9439975    0.002023800059
     22   S      49           421.5775504    0.015441100454
     22   S      50            95.8957402    0.075177402208
     22   S      51            26.9445497    0.249027707314
     22   S      52             8.5713784    0.482075214159
     22   S      53             2.8716364    0.326878109601

     23   S      54             4.9998841   -0.210680004154
     23   S      55             0.5327613    1.077681121247

     24   S      56             0.2075124    1.000000000000

     25   S      57             0.0868337    1.000000000000

     26   P      58            18.6818848    0.039471499719
     26   P      59             4.1250373    0.244388698258
     26   P      60             1.1979790    0.815218894188

     27   P      61             0.3821592    1.000000000000

     28   P      62             0.1206886    1.000000000000

     29   D      63             3.0148490    0.111983997300
     29   D      64             0.8820640    0.935464277443

     30   D      65             0.2854600    1.000000000000

     31   F      66             1.2468250    0.439684998371
     31   F      67             0.4390430    0.686338997457

 C         

     32   S      68          2806.9439975    0.002023800059
     32   S      69           421.5775504    0.015441100454
     32   S      70            95.8957402    0.075177402208
     32   S      71            26.9445497    0.249027707314
     32   S      72             8.5713784    0.482075214159
     32   S      73             2.8716364    0.326878109601

     33   S      74             4.9998841   -0.210680004154
     33   S      75             0.5327613    1.077681121247

     34   S      76             0.2075124    1.000000000000

     35   S      77             0.0868337    1.000000000000

     36   P      78            18.6818848    0.039471499719
     36   P      79             4.1250373    0.244388698258
     36   P      80             1.1979790    0.815218894188

     37   P      81             0.3821592    1.000000000000

     38   P      82             0.1206886    1.000000000000

     39   D      83             3.0148490    0.111983997300
     39   D      84             0.8820640    0.935464277443

     40   D      85             0.2854600    1.000000000000

     41   F      86             1.2468250    0.439684998371
     41   F      87             0.4390430    0.686338997457

 C         

     42   S      88          2806.9439975    0.002023800059
     42   S      89           421.5775504    0.015441100454
     42   S      90            95.8957402    0.075177402208
     42   S      91            26.9445497    0.249027707314
     42   S      92             8.5713784    0.482075214159
     42   S      93             2.8716364    0.326878109601

     43   S      94             4.9998841   -0.210680004154
     43   S      95             0.5327613    1.077681121247

     44   S      96             0.2075124    1.000000000000

     45   S      97             0.0868337    1.000000000000

     46   P      98            18.6818848    0.039471499719
     46   P      99             4.1250373    0.244388698258
     46   P     100             1.1979790    0.815218894188

     47   P     101             0.3821592    1.000000000000

     48   P     102             0.1206886    1.000000000000

     49   D     103             3.0148490    0.111983997300
     49   D     104             0.8820640    0.935464277443

     50   D     105             0.2854600    1.000000000000

     51   F     106             1.2468250    0.439684998371
     51   F     107             0.4390430    0.686338997457

 O         

     52   S     108          5077.7107079    0.002005200049
     52   S     109           762.6032479    0.015311300372
     52   S     110           173.4747916    0.074816301816
     52   S     111            48.8026730    0.249940906066
     52   S     112            15.6087813    0.483164411726
     52   S     113             5.2562810    0.324034307864

     53   S     114             9.8167720   -0.213008798624
     53   S     115             1.0626144    1.079351093025

     54   S     116             0.4112889    1.000000000000

     55   S     117             0.1672821    1.000000000000

     56   P     118            34.4309698    0.041201500385
     56   P     119             7.7428211    0.257878902408
     56   P     120             2.2788395    0.802283507490

     57   P     121             0.7151603    1.000000000000

     58   P     122             0.2137722    1.000000000000

     59   D     123             5.9603300    0.136289097514
     59   D     124             1.7648530    0.919489483226

     60   D     125             0.5756600    1.000000000000

     61   F     126             2.4143370    0.424090301385
     61   F     127             0.7676600    0.719405502349

 O         

     62   S     128          5077.7107079    0.002005200049
     62   S     129           762.6032479    0.015311300372
     62   S     130           173.4747916    0.074816301816
     62   S     131            48.8026730    0.249940906066
     62   S     132            15.6087813    0.483164411726
     62   S     133             5.2562810    0.324034307864

     63   S     134             9.8167720   -0.213008798624
     63   S     135             1.0626144    1.079351093025

     64   S     136             0.4112889    1.000000000000

     65   S     137             0.1672821    1.000000000000

     66   P     138            34.4309698    0.041201500385
     66   P     139             7.7428211    0.257878902408
     66   P     140             2.2788395    0.802283507490

     67   P     141             0.7151603    1.000000000000

     68   P     142             0.2137722    1.000000000000

     69   D     143             5.9603300    0.136289097514
     69   D     144             1.7648530    0.919489483226

     70   D     145             0.5756600    1.000000000000

     71   F     146             2.4143370    0.424090301385
     71   F     147             0.7676600    0.719405502349

 O         

     72   S     148          5077.7107079    0.002005200049
     72   S     149           762.6032479    0.015311300372
     72   S     150           173.4747916    0.074816301816
     72   S     151            48.8026730    0.249940906066
     72   S     152            15.6087813    0.483164411726
     72   S     153             5.2562810    0.324034307864

     73   S     154             9.8167720   -0.213008798624
     73   S     155             1.0626144    1.079351093025

     74   S     156             0.4112889    1.000000000000

     75   S     157             0.1672821    1.000000000000

     76   P     158            34.4309698    0.041201500385
     76   P     159             7.7428211    0.257878902408
     76   P     160             2.2788395    0.802283507490

     77   P     161             0.7151603    1.000000000000

     78   P     162             0.2137722    1.000000000000

     79   D     163             5.9603300    0.136289097514
     79   D     164             1.7648530    0.919489483226

     80   D     165             0.5756600    1.000000000000

     81   F     166             2.4143370    0.424090301385
     81   F     167             0.7676600    0.719405502349

 C         

     82   S     168          2806.9439975    0.002023800059
     82   S     169           421.5775504    0.015441100454
     82   S     170            95.8957402    0.075177402208
     82   S     171            26.9445497    0.249027707314
     82   S     172             8.5713784    0.482075214159
     82   S     173             2.8716364    0.326878109601

     83   S     174             4.9998841   -0.210680004154
     83   S     175             0.5327613    1.077681121247

     84   S     176             0.2075124    1.000000000000

     85   S     177             0.0868337    1.000000000000

     86   P     178            18.6818848    0.039471499719
     86   P     179             4.1250373    0.244388698258
     86   P     180             1.1979790    0.815218894188

     87   P     181             0.3821592    1.000000000000

     88   P     182             0.1206886    1.000000000000

     89   D     183             3.0148490    0.111983997300
     89   D     184             0.8820640    0.935464277443

     90   D     185             0.2854600    1.000000000000

     91   F     186             1.2468250    0.439684998371
     91   F     187             0.4390430    0.686338997457

 C         

     92   S     188          2806.9439975    0.002023800059
     92   S     189           421.5775504    0.015441100454
     92   S     190            95.8957402    0.075177402208
     92   S     191            26.9445497    0.249027707314
     92   S     192             8.5713784    0.482075214159
     92   S     193             2.8716364    0.326878109601

     93   S     194             4.9998841   -0.210680004154
     93   S     195             0.5327613    1.077681121247

     94   S     196             0.2075124    1.000000000000

     95   S     197             0.0868337    1.000000000000

     96   P     198            18.6818848    0.039471499719
     96   P     199             4.1250373    0.244388698258
     96   P     200             1.1979790    0.815218894188

     97   P     201             0.3821592    1.000000000000

     98   P     202             0.1206886    1.000000000000

     99   D     203             3.0148490    0.111983997300
     99   D     204             0.8820640    0.935464277443

    100   D     205             0.2854600    1.000000000000

    101   F     206             1.2468250    0.439684998371
    101   F     207             0.4390430    0.686338997457

 O         

    102   S     208          5077.7107079    0.002005200049
    102   S     209           762.6032479    0.015311300372
    102   S     210           173.4747916    0.074816301816
    102   S     211            48.8026730    0.249940906066
    102   S     212            15.6087813    0.483164411726
    102   S     213             5.2562810    0.324034307864

    103   S     214             9.8167720   -0.213008798624
    103   S     215             1.0626144    1.079351093025

    104   S     216             0.4112889    1.000000000000

    105   S     217             0.1672821    1.000000000000

    106   P     218            34.4309698    0.041201500385
    106   P     219             7.7428211    0.257878902408
    106   P     220             2.2788395    0.802283507490

    107   P     221             0.7151603    1.000000000000

    108   P     222             0.2137722    1.000000000000

    109   D     223             5.9603300    0.136289097514
    109   D     224             1.7648530    0.919489483226

    110   D     225             0.5756600    1.000000000000

    111   F     226             2.4143370    0.424090301385
    111   F     227             0.7676600    0.719405502349

 O         

    112   S     228          5077.7107079    0.002005200049
    112   S     229           762.6032479    0.015311300372
    112   S     230           173.4747916    0.074816301816
    112   S     231            48.8026730    0.249940906066
    112   S     232            15.6087813    0.483164411726
    112   S     233             5.2562810    0.324034307864

    113   S     234             9.8167720   -0.213008798624
    113   S     235             1.0626144    1.079351093025

    114   S     236             0.4112889    1.000000000000

    115   S     237             0.1672821    1.000000000000

    116   P     238            34.4309698    0.041201500385
    116   P     239             7.7428211    0.257878902408
    116   P     240             2.2788395    0.802283507490

    117   P     241             0.7151603    1.000000000000

    118   P     242             0.2137722    1.000000000000

    119   D     243             5.9603300    0.136289097514
    119   D     244             1.7648530    0.919489483226

    120   D     245             0.5756600    1.000000000000

    121   F     246             2.4143370    0.424090301385
    121   F     247             0.7676600    0.719405502349

 TOTAL NUMBER OF BASIS SET SHELLS             =  121
 NUMBER OF CARTESIAN GAUSSIAN BASIS FUNCTIONS =  435
 NOTE: THIS RUN WILL RESTRICT THE MO VARIATION SPACE TO SPHERICAL HARMONICS.
 THE NUMBER OF ORBITALS KEPT IN THE VARIATIONAL SPACE WILL BE PRINTED LATER.
 NUMBER OF ELECTRONS                          =   96
 CHARGE OF MOLECULE                           =    0
 SPIN MULTIPLICITY                            =    3
 NUMBER OF OCCUPIED ORBITALS (ALPHA)          =   49
 NUMBER OF OCCUPIED ORBITALS (BETA )          =   47
 TOTAL NUMBER OF ATOMS                        =   11
 THE NUCLEAR REPULSION ENERGY IS      823.4106687755

     ---------------------------------
     RELATIVISTIC WAVEFUNCTION OPTIONS
     ---------------------------------
     METHOD=LUT-IOTC NORDER= 2       NESOC=  0      MODEQR=      1
     NRATOM=  0      QMTTOL= 1.000E-10      QRTOL= 1.000E-10
     CLIGHT=137.03598950     TAU= 3.500E+00

 INTERNAL BASIS SET UNCONTRACTION FOR RESC/DK/IOTC/LUT-IOTC:
   247 SHELLS AND    808 AOS ARE CONSTRUCTED, COMPARED TO
   121 SHELLS AND    435 AOS IN THE CONTRACTED BASIS SET


     $CONTRL OPTIONS
     ---------------
 SCFTYP=MCSCF        RUNTYP=ENERGY       EXETYP=RUN     
 MPLEVL=       2     CITYP =NONE         CCTYP =NONE         VBTYP =NONE    
 DFTTYP=NONE         TDDFT =NONE    
 MULT  =       3     ICHARG=       0     NZVAR =       0     COORD =UNIQUE  
 PP    =NONE         RELWFN=LUT-IOTC     LOCAL =NONE         NUMGRD=       F
 ISPHER=       1     NOSYM =       1     MAXIT =     200     UNITS =ANGS    
 PLTORB=       F     MOLPLT=       F     AIMPAC=       F     FRIEND=        
 NPRINT=       7     IREST =       0     GEOM  =INPUT   
 NORMF =       0     NORMP =       0     ITOL  =      20     ICUT  =       9
 INTTYP=RYSQUAD      GRDTYP=BEST         QMTTOL= 1.0E-05

     $SYSTEM OPTIONS
     ---------------
  REPLICATED MEMORY=   500000000 WORDS (ON EVERY NODE).
 DISTRIBUTED MEMDDI=        3000 MILLION WORDS IN AGGREGATE,
 MEMDDI DISTRIBUTED OVER  16 PROCESSORS IS   187500000 WORDS/PROCESSOR.
 TOTAL MEMORY REQUESTED ON EACH PROCESSOR=   687500000 WORDS.
 TIMLIM=      525600.00 MINUTES, OR     365.0 DAYS.
 PARALL= T  BALTYP=  DLB     KDIAG=    3  COREFL= F
 MXSEQ2=     300 MXSEQ3=     150  mem10=         0

          ----------------
          PROPERTIES INPUT
          ----------------

     MOMENTS            FIELD           POTENTIAL          DENSITY
 IEMOM =       1   IEFLD =       0   IEPOT =       0   IEDEN =       0
 WHERE =COMASS     WHERE =NUCLEI     WHERE =NUCLEI     WHERE =NUCLEI  
 OUTPUT=BOTH       OUTPUT=BOTH       OUTPUT=BOTH       OUTPUT=BOTH    
 IEMINT=       0   IEFINT=       0                     IEDINT=       0
                                                       MORB  =       0

     -------------------------------
     INTEGRAL TRANSFORMATION OPTIONS
     -------------------------------
     NWORD  =            0
     CUTOFF = 1.0E-09     MPTRAN =       0
     DIRTRF =       T     AOINTS =DUP     

          ----------------------
          MCSCF INPUT PARAMETERS
          ----------------------
 CONVERGER SELECTION: FOCAS = F  SOSCF = F  FULLNR = T  QUD = F  JACOBI = F
 SECULAR EQUATION METHOD CISTEP = GMCCI   
 --- GENERAL INPUT OPTIONS:
 MAXIT =     200  MICIT =       1  ACURCY= 1.000E-05
 DAMP  =   0.000  CANONC=       T  ENGTOL= 1.000E-10
 EKT   =       F  NPUNCH=       2  NWORD =         0
 REGENERATE CI AFTER CONVERGENCE = NONE    
 DIABATIZATION AFTER CONVERGENCE =        F
 --- INPUT FOR FULLNR CONVERGER:
 METHOD=DM2       FORS  =       F  DROPC =       T
 LINSER=       F  FCORE =       F  NORB  =     435

          ----------------------
          INTEGRAL INPUT OPTIONS
          ----------------------
 NOPK  =       1 NORDER=       0 SCHWRZ=       T

 ------------------------------------------
 MULTIREFERENCE PERTURBATION THEORY CONTROL
 ------------------------------------------
 MRPT=GMCPT    READ CONVERGED MCSCF VECTORS= F


     ------------------------------------------
     THE POINT GROUP IS C1 , NAXIS= 1, ORDER= 1
     ------------------------------------------

 -- VARIATIONAL SPACE WILL BE RESTRICTED TO PURE SPHERICAL HARMONICS ONLY --
 AFTER EXCLUDING CONTAMINANT COMBINATIONS FROM THE CARTESIAN GAUSSIAN BASIS
 SET, THE NUMBER OF SPHERICAL HARMONICS KEPT IN THE VARIATION SPACE IS  369

     DIMENSIONS OF THE SYMMETRY SUBSPACES ARE
 A   =  369

 ..... DONE SETTING UP THE RUN .....
 CPU     0: STEP CPU TIME=     0.73 TOTAL CPU TIME=          0.7 (      0.0 MIN)
 TOTAL WALL CLOCK TIME=          0.9 SECONDS, CPU UTILIZATION IS    79.35%

          ********************
          1 ELECTRON INTEGRALS
          ********************
 TIME TO DO ORDINARY INTEGRALS=      0.01

 ======================================================================
      INFINITE-ORDER TWO-COMPONENT (IOTC) ONE-ELECTRON HAMILTONIAN
      WITH LOCAL UNITARY TRANSFORMATION (LUT) SCHEME
                                            CODED BY YUYA NAKAJIMA
             J. SEINO, H. NAKAI, J. CHEM. PHYS. 136, 244102 (2012)
             J. SEINO, H. NAKAI, J. CHEM. PHYS. 137, 144101 (2012)
             J. SEINO, H. NAKAI, J. CHEM. PHYS. 139, 034109 (2013)
        J. SEINO, H. NAKAI, INT. J. QUANTUM. CHEM. 115, 253 (2015)
 ======================================================================

 LUT-IOTC TRANSFORMATION FOR ATOM:    1
 THE SMALLEST EIGENVALUE OF THE OVERLAP MATRIX IS   5.23E-12
 THERE ARE     2 OVERLAP MATRIX EIGENVALUES LESS THAN   1.00E-10
 THE NUMBER OF LINEARLY INDEPENDENT ORBITALS KEPT IS   176

 LUT-IOTC TRANSFORMATION FOR ATOM:    2
 LUT-IOTC TRANSFORMATION FOR ATOM:    3
 LUT-IOTC TRANSFORMATION FOR ATOM:    4
 LUT-IOTC TRANSFORMATION FOR ATOM:    5
 LUT-IOTC TRANSFORMATION FOR ATOM:    6
 LUT-IOTC TRANSFORMATION FOR ATOM:    7
 LUT-IOTC TRANSFORMATION FOR ATOM:    8
 LUT-IOTC TRANSFORMATION FOR ATOM:    9
 LUT-IOTC TRANSFORMATION FOR ATOM:   10
 LUT-IOTC TRANSFORMATION FOR ATOM:   11

     -------------------------------------
     LUT-IOTC TRANSFORMATION FOR ATOM-PAIR
     -------------------------------------

                1 FE         2 C          3 C          4 C          5 O     

   1 FE      0.0000000    1.7738933 *  1.7738933 *  1.7738908 *  2.9276003 *
   2 C       1.7738933 *  0.0000000    3.0724724 *  3.0724716 *  1.1537070 *
   3 C       1.7738933 *  3.0724724 *  0.0000000    3.0724716 *  4.1122727  
   4 C       1.7738908 *  3.0724716 *  3.0724716 *  0.0000000    4.1122713  
   5 O       2.9276003 *  1.1537070 *  4.1122727    4.1122713    0.0000000  
   6 O       2.9276003 *  4.1122727    1.1537070 *  4.1122714    5.0707524  
   7 O       2.9275973 *  4.1122712    4.1122711    1.1537066 *  5.0707500  
   8 C       1.6797493 *  2.4430013 *  2.4430014 *  2.4429995 *  3.3752633 *
   9 C       1.6797492 *  2.4430013 *  2.4430013 *  2.4429991 *  3.3752631 *
  10 O       2.8453109 *  3.3529823 *  3.3529823 *  3.3529817 *  4.0824792  
  11 O       2.8453107 *  3.3529824 *  3.3529823 *  3.3529809 *  4.0824791  

                6 O          7 O          8 C          9 C         10 O     

   1 FE      2.9276003 *  2.9275973 *  1.6797493 *  1.6797492 *  2.8453109 *
   2 C       4.1122727    4.1122712    2.4430013 *  2.4430013 *  3.3529823 *
   3 C       1.1537070 *  4.1122711    2.4430014 *  2.4430013 *  3.3529823 *
   4 C       4.1122714    1.1537066 *  2.4429995 *  2.4429991 *  3.3529817 *
   5 O       5.0707524    5.0707500    3.3752633 *  3.3752631 *  4.0824792  
   6 O       0.0000000    5.0707500    3.3752633 *  3.3752631 *  4.0824792  
   7 O       5.0707500    0.0000000    3.3752602 *  3.3752606 *  4.0824774  
   8 C       3.3752633 *  3.3752602 *  0.0000000    3.3594985 *  1.1655615 *
   9 C       3.3752631 *  3.3752606 *  3.3594985 *  0.0000000    4.5250601  
  10 O       4.0824792    4.0824774    1.1655615 *  4.5250601    0.0000000  
  11 O       4.0824791    4.0824776    4.5250601    1.1655615 *  5.6906216  

               11 O     

   1 FE      2.8453107 *
   2 C       3.3529824 *
   3 C       3.3529823 *
   4 C       3.3529809 *
   5 O       4.0824791  
   6 O       4.0824791  
   7 O       4.0824776  
   8 C       4.5250601  
   9 C       1.1655615 *
  10 O       5.6906216  
  11 O       0.0000000  

  * ... TRANSFORMED ATOM PAIR (LESS THAN   3.500 ANGS.)

 TIME TO DO  RELATIVISTIC INTS=      0.54
 TIME TO DO   DIPOLE INTEGRALS=      0.01
 ...... END OF ONE-ELECTRON INTEGRALS ......
 CPU     0: STEP CPU TIME=     0.56 TOTAL CPU TIME=          1.3 (      0.0 MIN)
 TOTAL WALL CLOCK TIME=          3.7 SECONDS, CPU UTILIZATION IS    35.25%

          -------------
          GUESS OPTIONS
          -------------
          GUESS =MOREAD            NORB  =     369          NORDER=       1
          MIX   =       F          PRTMO =       F          PUNMO =       F
          TOLZ  = 1.0E-08          TOLE  = 1.0E-05
          SYMDEN=       F          PURIFY=       T

 INITIAL GUESS ORBITALS GENERATED BY MOREAD   ROUTINE.

 STATISTICS FOR GENERATION OF SYMMETRY ORBITAL -Q- MATRIX
 NUMBER OF CARTESIAN ATOMIC ORBITALS=        435
 NUMBER OF SPHERICAL CONTAMINANTS DROPPED=    66
 NUMBER OF LINEARLY DEPENDENT MOS DROPPED=     0
 TOTAL NUMBER OF MOS IN VARIATION SPACE=     369
 ORBITAL PURIFICATION WILL OCCUR

 SYMMETRIES FOR INITIAL GUESS ORBITALS FOLLOW.   BOTH SET(S).
    49 ORBITALS ARE OCCUPIED (   19 CORE ORBITALS).
     1=A        2=A        3=A        4=A        5=A        6=A        7=A   
     8=A        9=A       10=A       11=A       12=A       13=A       14=A   
    15=A       16=A       17=A       18=A       19=A       20=A       21=A   
    22=A       23=A       24=A       25=A       26=A       27=A       28=A   
    29=A       30=A       31=A       32=A       33=A       34=A       35=A   
    36=A       37=A       38=A       39=A       40=A       41=A       42=A   
    43=A       44=A       45=A       46=A       47=A       48=A       49=A   
    50=A       51=A       52=A       53=A       54=A       55=A       56=A   
    57=A       58=A       59=A       60=A       61=A       62=A       63=A   
    64=A       65=A       66=A       67=A       68=A       69=A       70=A   
    71=A       72=A       73=A       74=A       75=A       76=A       77=A   
    78=A       79=A       80=A       81=A       82=A       83=A       84=A   
    85=A       86=A       87=A       88=A       89=A       90=A       91=A   
    92=A       93=A       94=A       95=A       96=A       97=A       98=A   
    99=A      100=A      101=A      102=A      103=A      104=A      105=A   
   106=A      107=A      108=A      109=A      110=A      111=A      112=A   
   113=A      114=A      115=A      116=A      117=A      118=A      119=A   
   120=A      121=A      122=A      123=A      124=A      125=A      126=A   
   127=A      128=A      129=A      130=A      131=A      132=A      133=A   
   134=A      135=A      136=A      137=A      138=A      139=A      140=A   
   141=A      142=A      143=A      144=A      145=A      146=A      147=A   
   148=A      149=A      150=A      151=A      152=A      153=A      154=A   
   155=A      156=A      157=A      158=A      159=A      160=A      161=A   
   162=A      163=A      164=A      165=A      166=A      167=A      168=A   
   169=A      170=A      171=A      172=A      173=A      174=A      175=A   
   176=A      177=A      178=A      179=A      180=A      181=A      182=A   
   183=A      184=A      185=A      186=A      187=A      188=A      189=A   
   190=A      191=A      192=A      193=A      194=A      195=A      196=A   
   197=A      198=A      199=A      200=A      201=A      202=A      203=A   
   204=A      205=A      206=A      207=A      208=A      209=A      210=A   
   211=A      212=A      213=A      214=A      215=A      216=A      217=A   
   218=A      219=A      220=A      221=A      222=A      223=A      224=A   
   225=A      226=A      227=A      228=A      229=A      230=A      231=A   
   232=A      233=A      234=A      235=A      236=A      237=A      238=A   
   239=A      240=A      241=A      242=A      243=A      244=A      245=A   
   246=A      247=A      248=A      249=A      250=A      251=A      252=A   
   253=A      254=A      255=A      256=A      257=A      258=A      259=A   
   260=A      261=A      262=A      263=A      264=A      265=A      266=A   
   267=A      268=A      269=A      270=A      271=A      272=A      273=A   
   274=A      275=A      276=A      277=A      278=A      279=A      280=A   
   281=A      282=A      283=A      284=A      285=A      286=A      287=A   
   288=A      289=A      290=A      291=A      292=A      293=A      294=A   
   295=A      296=A      297=A      298=A      299=A      300=A      301=A   
   302=A      303=A      304=A      305=A      306=A      307=A      308=A   
   309=A      310=A      311=A      312=A      313=A      314=A      315=A   
   316=A      317=A      318=A      319=A      320=A      321=A      322=A   
   323=A      324=A      325=A      326=A      327=A      328=A      329=A   
   330=A      331=A      332=A      333=A      334=A      335=A      336=A   
   337=A      338=A      339=A      340=A      341=A      342=A      343=A   
   344=A      345=A      346=A      347=A      348=A      349=A      350=A   
   351=A      352=A      353=A      354=A      355=A      356=A      357=A   
   358=A      359=A      360=A      361=A      362=A      363=A      364=A   
   365=A      366=A      367=A      368=A      369=A   
 ...... END OF INITIAL ORBITAL SELECTION ......
 CPU     0: STEP CPU TIME=     4.41 TOTAL CPU TIME=          5.7 (      0.1 MIN)
 TOTAL WALL CLOCK TIME=         12.2 SECONDS, CPU UTILIZATION IS    46.68%

                    ----------------------
                    AO INTEGRAL TECHNOLOGY
                    ----------------------
     S,P,L SHELL ROTATED AXIS INTEGRALS, REPROGRAMMED BY
        KAZUYA ISHIMURA (IMS) AND JOSE SIERRA (SYNSTAR).
     S,P,D,L SHELL ROTATED AXIS INTEGRALS PROGRAMMED BY
        KAZUYA ISHIMURA (INSTITUTE FOR MOLECULAR SCIENCE).
     S,P,D,F,G SHELL TO TOTAL QUARTET ANGULAR MOMENTUM SUM 5,
        ERIC PROGRAM BY GRAHAM FLETCHER (ELORET AND NASA ADVANCED
        SUPERCOMPUTING DIVISION, AMES RESEARCH CENTER).
     S,P,D,F,G,L SHELL GENERAL RYS QUADRATURE PROGRAMMED BY
        MICHEL DUPUIS (PACIFIC NORTHWEST NATIONAL LABORATORY).

          --------------------
          2 ELECTRON INTEGRALS
          --------------------

 DIRECT SCF METHOD SKIPS INTEGRAL STORAGE ON DISK.
 DIRECT TRANSFORMATION SKIPS AO INTEGRAL STORAGE ON DISK.
  ...... END OF TWO-ELECTRON INTEGRALS .....
 STEP CPU TIME =     0.00 TOTAL CPU TIME =          5.7 (      0.1 MIN)
 TOTAL WALL CLOCK TIME=         12.8 SECONDS, CPU UTILIZATION IS    44.71%

          -----------------
          MCSCF CALCULATION
          -----------------

 ----- NUCLEAR ENERGY ----- =       823.4106687755

     -------------------------------------------------
     GMC-PT/GMC-QDPT or general MCSCF input parameters
     -------------------------------------------------
 # of frozen core orbs. =        19 ->         0
 # of doubly occ. orbs. =        24
 # of active      orbs. =         8
 # of virtual     orbs. =       318
 # of active electrons  =        10
 # of states in CI      =        17
 Highest state in CI    =        17
 kstate =  1 1 1 1 1 1 1 1 1 1 1 1 1 1 1 1 1
 avecoe =  0.111 0.037 0.037 0.037 0.037 0.037 0.037 0.037 0.037 0.037
           0.037 0.037 0.037 0.111 0.111 0.111 0.111
 State symmetry           = A           
 Assigned symmetry number = 1

 <<<Act. MO sym.: 11111111

 <<<Division of 1-ext.:  0 0 0 0 0 0 0 0 0 0 0 0 0 0 0 0
 <<<Division of 2-ext.:  0 1 2 3 4 5 6 7 8 9101112131415

 *** Reference space

 Reference type: ORMAS (= Occupation restricted multiple active space)
 # of orbitals          =  8
 # of minimum electrons = 10
 # of maximum electrons = 10
 State symmetry    =    1 (input)
 2*Sz              =    - (general)
 Spin multiplicity =    - (general)
 Dimension of reference space =      8008  (from      8008 walks)

 <<<Ionized spaces for Ref-CI:
      0:         8008 /   -1-0:        11440 /  0-1-0:         8008

 EVALUATING EXCHANGE INTEGRALS FOR DIRECT INTEGRAL TRANSFORMATION
 SCHWARZ INEQUALITY OVERHEAD:     90407 INTEGRALS, T=        0.02

     --------------------------------------------
     PARTIAL TWO ELECTRON INTEGRAL TRANSFORMATION
     --------------------------------------------

 NUMBER OF CORE MOLECULAR ORBITALS     =   43
 NUMBER OF OCCUPIED MOLECULAR ORBITALS =   51
 TOTAL NUMBER OF MOLECULAR ORBITALS    =  369
 TOTAL NUMBER OF ATOMIC ORBITALS       =  435
 THRESHOLD FOR KEEPING TRANSFORMED 2E- INTEGRALS = 1.000E-09

 -------------------------------     ------------------------------
 DISTRIBUTED DATA TRANSFORMATION     PROGRAM WRITTEN BY G. FLETCHER
 -------------------------------     ------------------------------

 THE DISTRIBUTED MEMORY REQUIRED FOR THIS STEP IS MEMDDI=       400 MWORDS
 CREATING DISTRIBUTED STORAGE FOR [VIR OCC|VIR OCC] INTEGRALS
 DDI: Creating Array [0] - 189225 x 1326 = 250912350 words.
 CREATING DISTRIBUTED STORAGE FOR [VIR OCC|OCC OCC] INTEGRALS
 DDI: Creating Array [1] - 318 x 67626 = 21505068 words.
 CREATING DISTRIBUTED STORAGE FOR [OCC OCC|OCC OCC] INTEGRALS
 DDI: Creating Array [2] - 1326 x 1326 = 1758276 words.
 CREATING DISTRIBUTED STORAGE FOR [VIR VIR|OCC OCC] INTEGRALS
 DDI: Creating Array [3] - 94830 x 1326 = 125744580 words.
 FOR   16 PROCESSORS, THE REPLICATED MEMORY NEEDED IS    11256063 WORDS.
 SCHWARZ INEQUALITY OVERHEAD:     90407 INTEGRALS, T=        0.02

      DIRECT 4-INDEX TRANSFORMATION 
      SCHWARZ INEQUALITY TEST SKIPPED   18319320 INTEGRAL BLOCKS
 ----- FROZEN CORE ENERGY =     -2631.5802763594
 ... END OF INTEGRAL TRANSFORMATION ...
 CPU     0: STEP CPU TIME=    84.14 TOTAL CPU TIME=         89.8 (      1.5 MIN)
 TOTAL WALL CLOCK TIME=        141.4 SECONDS, CPU UTILIZATION IS    63.55%

     --------------------------------     -----------------------------
     MCHF NEWTON-RAPHSON OPTIMIZATION     CODE WRITTEN BY MICHEL DUPUIS
     --------------------------------     -----------------------------
     PARALLEL VERSION WRITTEN BY G. FLETCHER (ELORET)
     NASA ADVANCED SUPERCOMPUTING DIVISION, AMES RESEARCH CENTER

 NUMBER OF INDEPENDENT ORBITAL ROTATION PARAMETERS =  7911
 ..... DONE SOLVING NEWTON-RAPHSON EQUATIONS .....
 CPU     0: STEP CPU TIME=   582.95 TOTAL CPU TIME=        672.8 (     11.2 MIN)
 TOTAL WALL CLOCK TIME=       1513.8 SECONDS, CPU UTILIZATION IS    44.44%
 ..... DONE WITH NTN-RPH ORBITAL ROTATIONS ..... 
 CPU     0: STEP CPU TIME=     0.06 TOTAL CPU TIME=        672.8 (     11.2 MIN)
 TOTAL WALL CLOCK TIME=       1514.5 SECONDS, CPU UTILIZATION IS    44.43%
 MAXIMUM MEMORY USED BY NTN-RPH CODE WAS   1992646 WORDS.

 ITER     TOTAL ENERGY      DEL(E)  LAGRANGIAN ASYMMETRY   SQCDF  MICIT   DAMP
   1    -1835.214517279 -0.214517279  0.002041  131    1 6.649E-05  1   0.0000
   2    -1835.214566891 -0.000049611  0.000188   54   46 3.289E-07  1   0.0000
   3    -1835.214567064 -0.000000174  0.000136   53   45 6.501E-08  1   0.0000
   4    -1835.214567139 -0.000000074  0.000103   53   45 2.284E-08  1   0.0000
   5    -1835.214567178 -0.000000039  0.000077   53   45 1.045E-08  1   0.0000
   6    -1835.214567199 -0.000000021  0.000058   53   45 5.265E-09  1   0.0000
   7    -1835.214567210 -0.000000012  0.000043   53   45 2.784E-09  1   0.0000
   8    -1835.214567217 -0.000000006  0.000031   53   45 1.525E-09  1   0.0000
   9    -1835.214567220 -0.000000003  0.000023   53   45 8.143E-10  1   0.0000
  10    -1835.214567222 -0.000000002  0.000017   53   45 4.503E-10  1   0.0000
  11    -1835.214567223 -0.000000001  0.000013   53   45 2.331E-10  1   0.0000
  12    -1835.214567224 -0.000000001  0.000009   53   45 1.114E-10  1   0.0000

          --------------------
          LAGRANGIAN CONVERGED
          --------------------

 FINAL MCSCF ENERGY IS    -1835.2145672237 AFTER  12 ITERATIONS

 -MCCI- BASED ON OPTIMIZED ORBITALS
 ----------------------------------

 PLEASE NOTE: IF THE ACTIVE ORBITALS ARE CANONICALIZED BELOW,
 THE FOLLOWING CI EXPANSION COEFFICIENTS AND THE DENSITY DO NOT
 CORRESPOND TO THE PRINTED ORBITALS.  THE PRINTED EXPANSIONS MATCH
 THE ORBITALS USED DURING THE LAST ITERATION.  IF YOU WISH TO SEE
 CI EXPANSIONS BASED ON THE CANONICAL (OR NATURAL) ORBITALS, YOU
 MUST RUN A CI CALCULATION WITH THAT ORBITAL CHOICE READ IN $VEC.

 Averaged energy =   -1835.214567224

 State #    1  Energy =   -1835.395125409  S =  0.000

      Det      Coef    Occupancy (Ignoring core)
      ---      ----    --------- --------- -----
      231   -0.946905  1111100011111000
      267   -0.062099  1110001111111000
      881    0.055987  0111110001111100
      882   -0.054934  1111001001111100
      898    0.054934  1110100101111100
     1171   -0.054934  0111110011110010
     1172    0.122910  1111001011110010
     1188   -0.078033  1110100111110010
     3338    0.054934  0111110011101001
     3339   -0.078033  1111001011101001
     3355    0.122910  1110100111101001
     5115   -0.062099  1111100011100011

 State #    2  Energy =   -1835.217319057  S =  1.000

      Det      Coef    Occupancy (Ignoring core)
      ---      ----    --------- --------- -----
      139   -0.097551  1111110011011000
      234   -0.656662  1101110011111000
      459   -0.064698  1101101011110100
      639    0.067900  1101100111101100
      736    0.656662  1111100011011100
      741   -0.059429  0111110011011100
      879    0.059429  1101110001111100
     1178   -0.091488  1101011011110010
     1196    0.056632  1100110111110010
     1452    0.064698  1111010011011010
     1952    0.091488  1111001011010110
     1968   -0.056500  1110100111010110
     3345    0.056500  1101011011101001
     3363   -0.092170  1100110111101001
     3455   -0.067900  1110110011011001
     4284   -0.056632  1111001011001101
     4300    0.092170  1110100111001101

 State #    3  Energy =   -1835.217319057  S =  1.000

      Det      Coef    Occupancy (Ignoring core)
      ---      ----    --------- --------- -----
      139   -0.630419  1111110011011000
      141   -0.051010  1111011011011000
      234    0.059567  1101110011111000
      708   -0.057054  1111110001011100
      736   -0.059567  1111100011011100
      934    0.684106  1101100011111100
      945    0.061912  0101110011111100
      987    0.051208  1100001111111100
     1076   -0.087831  1111011011010010
     1083    0.055780  1110110111010010
     2144    0.055354  1101100011110110
     2158    0.095311  1101001011110110
     2181   -0.060931  1100100111110110
     3243    0.056149  1111011011001001
     3250   -0.088487  1110110111001001
     4476   -0.052114  1101100011101101
     4490   -0.060530  1101001011101101
     4513    0.096022  1100100111101101

 State #    4  Energy =   -1835.217319057  S =  1.000

      Det      Coef    Occupancy (Ignoring core)
      ---      ----    --------- --------- -----
      139    0.682335  1111110011011000
      141    0.055211  1111011011011000
      148   -0.051979  1110110111011000
      708    0.061752  1111110001011100
      934    0.635552  1101100011111100
      945    0.057518  0101110011111100
     1076    0.095064  1111011011010010
     1083   -0.060373  1110110111010010
     2144    0.051426  1101100011110110
     2158    0.088547  1101001011110110
     2181   -0.056606  1100100111110110
     3243   -0.060773  1111011011001001
     3250    0.095774  1110110111001001
     4490   -0.056234  1101001011101101
     4513    0.089207  1100100111101101
     5023    0.051076  1111110011000011

 State #    5  Energy =   -1835.217318865  S =  1.000

      Det      Coef    Occupancy (Ignoring core)
      ---      ----    --------- --------- -----
      175   -0.817203  1111110010111000
      177   -0.062253  1111011010111000
      184    0.066124  1110110110111000
      235    0.088404  1011110011111000
      792   -0.073958  1111110000111100
      794   -0.050049  1111011000111100
      801    0.050258  1110110100111100
      820   -0.088404  1111100010111100
      935    0.434827  1011100011111100
     1112   -0.114754  1111011010110010
     1119    0.072735  1110110110110010
     2159    0.061060  1011001011110110
     3279    0.072257  1111011010101001
     3286   -0.113904  1110110110101001
     4514    0.060608  1010100111101101
     5059   -0.061171  1111110010100011

 State #    6  Energy =   -1835.217318865  S =  1.000

      Det      Coef    Occupancy (Ignoring core)
      ---      ----    --------- --------- -----
      175   -0.427087  1111110010111000
      235    0.058797  1011110011111000
      820   -0.058797  1111100010111100
      935   -0.826564  1011100011111100
      946   -0.074805  0011110011111100
      988   -0.061872  1010001111111100
     1112   -0.059973  1111011010110010
     2145   -0.062966  1011100011110110
     2156   -0.050622  0011110011110110
     2159   -0.116068  1011001011110110
     2182    0.073085  1010100111110110
     3286   -0.059529  1110110110101001
     4477    0.066881  1011100011101101
     4488    0.050834  0011110011101101
     4491    0.073569  1011001011101101
     4514   -0.115209  1010100111101101

 State #    7  Energy =   -1835.217318865  S =  1.000

      Det      Coef    Occupancy (Ignoring core)
      ---      ----    --------- --------- -----
      175    0.149338  1111110010111000
      235    0.651913  1011110011111000
      460    0.067409  1011101011110100
      640   -0.064230  1011100111101100
      820   -0.651913  1111100010111100
      825    0.058999  0111110010111100
      880   -0.058999  1011110001111100
     1179    0.091543  1011011011110010
     1197   -0.056052  1010110111110010
     1536   -0.067409  1111010010111010
     2036   -0.091543  1111001010110110
     2052    0.056182  1110100110110110
     3346   -0.056182  1011011011101001
     3364    0.090866  1010110111101001
     3539    0.064230  1110110010111001
     4368    0.056052  1111001010101101
     4384   -0.090866  1110100110101101

 State #    8  Energy =   -1835.203524229  S =  1.000

      Det      Coef    Occupancy (Ignoring core)
      ---      ----    --------- --------- -----
       39    0.136002  1111110011110000
       94   -0.922048  1111110011101000
      112   -0.089390  1110011111101000
      315   -0.055256  1111101011100100
      588   -0.123273  1111110001101100
      590   -0.057614  1111011001101100
      597    0.063173  1110110101101100
      933    0.184420  1110100011111100
     1031   -0.136291  1111011011100010
     1038    0.097835  1110110111100010
     3033    0.056165  1111011011100001
     3040   -0.061837  1110110111100001

 State #    9  Energy =   -1835.203524229  S =  1.000

      Det      Coef    Occupancy (Ignoring core)
      ---      ----    --------- --------- -----
       94    0.183324  1111110011101000
      233   -0.257866  1110110011111000
      616    0.257866  1111100011101100
      932   -0.125054  1111000011111100
      933    0.847817  1110100011111100
      943    0.113349  0110110011111100
     1652    0.050808  1110010011111010
     2153    0.052976  0110110011110110
     2157    0.125319  1110001011110110
     2177   -0.051644  1110000111110110
     4485   -0.058088  0110110011101101
     4489   -0.089958  1110001011101101
     4509    0.056859  1110000111101101
     6554    0.082194  1110100011100111

 State #   10  Energy =   -1835.203524229  S =  1.000

      Det      Coef    Occupancy (Ignoring core)
      ---      ----    --------- --------- -----
      232    0.090397  1111010011111000
      233   -0.612859  1110110011111000
      451   -0.090397  1111100011110100
      616    0.612859  1111100011101100
      621   -0.081936  0111110011101100
      652    0.063469  1110001111101100
      878    0.081936  1110110001111100
      932    0.053709  1111000011111100
      933   -0.364125  1110100011111100
     1177   -0.090589  1110011011110010
     1832    0.090589  1111001011100110
     1848   -0.060974  1110100111100110
     2157   -0.053823  1110001011110110
     3344    0.060974  1110011011101001
     5117   -0.063469  1110110011100011

 State #   11  Energy =   -1835.203524184  S =  1.000

      Det      Coef    Occupancy (Ignoring core)
      ---      ----    --------- --------- -----
       39    0.932448  1111110011110000
       57    0.090399  1110011111110000
       94    0.137536  1111110011101000
      321    0.055879  1111100111100100
      423    0.124664  1111110001110100
      425    0.063886  1111011001110100
      432   -0.058264  1110110101110100
      932   -0.126052  1111000011111100
     1031    0.062535  1111011011100010
     1038   -0.056799  1110110111100010
     3033    0.098938  1111011011100001
     3040   -0.137829  1110110111100001

 State #   12  Energy =   -1835.203524184  S =  1.000

      Det      Coef    Occupancy (Ignoring core)
      ---      ----    --------- --------- -----
      232    0.646697  1111010011111000
      233    0.095388  1110110011111000
      451   -0.646697  1111100011110100
      456    0.086460  0111110011110100
      487   -0.066974  1110001111110100
      616   -0.095388  1111100011101100
      877   -0.086460  1111010001111100
      932   -0.218322  1111000011111100
     1192    0.064341  1110010111110010
     3359   -0.095591  1110010111101001
     3834   -0.064341  1111001011100101
     3850    0.095591  1110100111100101
     5116    0.066974  1111010011100011

 State #   13  Energy =   -1835.203524184  S =  1.000

      Det      Coef    Occupancy (Ignoring core)
      ---      ----    --------- --------- -----
       39   -0.120989  1111110011110000
      232   -0.156389  1111010011111000
      451    0.156389  1111100011110100
      932   -0.906553  1111000011111100
      933   -0.133717  1110100011111100
      940   -0.121201  0111010011111100
     2150   -0.062112  0111010011110110
     2157   -0.060798  1110001011110110
     2177   -0.096191  1110000111110110
     3654   -0.054327  1110010011111001
     4482    0.056646  0111010011101101
     4489    0.055221  1110001011101101
     4509    0.134001  1110000111101101
     6553   -0.087888  1111000011100111

 State #   14  Energy =   -1835.184018395  S =  0.000

      Det      Coef    Occupancy (Ignoring core)
      ---      ----    --------- --------- -----
      234    0.663802  1101110011111000
      240   -0.068198  1011101011111000
      254    0.068199  1101100111111000
      736    0.663802  1111100011011100
     1178    0.090377  1101011011110010
     1196   -0.058175  1100110111110010
     1535   -0.068198  1111100010111010
     1952    0.090377  1111001011010110
     1968   -0.058147  1110100111010110
     3345   -0.058147  1101011011101001
     3363    0.090798  1100110111101001
     3453    0.068199  1111100011011001
     4284   -0.058175  1111001011001101
     4300    0.090798  1110100111001101

 State #   15  Energy =   -1835.184018182  S =  0.000

      Det      Coef    Occupancy (Ignoring core)
      ---      ----    --------- --------- -----
      235   -0.663802  1011110011111000
      239    0.068198  1101101011111000
      255    0.068197  1011100111111000
      820   -0.663802  1111100010111100
     1179   -0.090823  1011011011110010
     1197    0.058122  1010110111110010
     1451    0.068198  1111100011011010
     2036   -0.090823  1111001010110110
     2052    0.058150  1110100110110110
     3346    0.058150  1011011011101001
     3364   -0.090402  1010110111101001
     3537    0.068197  1111100010111001
     4368    0.058122  1111001010101101
     4384   -0.090402  1110100110101101

 State #   16  Energy =   -1835.163128356  S =  0.000

      Det      Coef    Occupancy (Ignoring core)
      ---      ----    --------- --------- -----
      232   -0.663987  1111010011111000
      233   -0.118122  1110110011111000
      451   -0.663987  1111100011110100
      456    0.065466  0111110011110100
      487   -0.073218  1110001111110100
      616   -0.118122  1111100011101100
      877    0.065466  1111010001111100
     1192   -0.069853  1110010111110010
     3359    0.092994  1110010111101001
     3834   -0.069853  1111001011100101
     3850    0.092994  1110100111100101
     5116   -0.073218  1111010011100011

 State #   17  Energy =   -1835.163128336  S =  0.000

      Det      Coef    Occupancy (Ignoring core)
      ---      ----    --------- --------- -----
      232   -0.118122  1111010011111000
      233    0.663987  1110110011111000
      451   -0.118122  1111100011110100
      616    0.663987  1111100011101100
      621   -0.065466  0111110011101100
      652    0.073218  1110001111101100
      878   -0.065466  1110110001111100
     1177    0.092995  1110011011110010
     1832    0.092995  1111001011100110
     1848   -0.069853  1110100111100110
     3344   -0.069853  1110011011101001
     5117    0.073218  1110110011100011

 DENSITY MATRIX OVER ACTIVE MO-S

             1           2           3           4           5

    1    1.9755323
    2   -0.0000000   1.7749903
    3    0.0000000  -0.0000000   1.7749903
    4    0.0000002   0.0000000  -0.0000000   1.6988449
    5    0.0000000   0.0000000  -0.0000000   0.0000000   1.6988448
    6   -0.0983221   0.0000002  -0.0000000  -0.0000003  -0.0000000
    7   -0.0000002  -0.0000001   0.0000001  -0.0116939  -0.0359359
    8   -0.0000003  -0.0000001  -0.0000000  -0.0359360   0.0116938

             6           7           8

    6    0.9067850
    7    0.0000007   0.0850063
    8    0.0000014  -0.0000000   0.0850062

 FORMING THE "STANDARD FOCK OPERATOR" IN DIRECT AO INTEGRAL MODE...
 ONLY THE   43 CORE AND  318 VIRTUAL ORBITALS WILL BE CANONICALIZED

          ----------------------
          MCSCF NATURAL ORBITALS
          ----------------------

                      1          2          3          4          5
                 -263.6611   -32.4490   -27.5172   -27.5172   -27.5129
                     A          A          A          A          A   
    1  FE 1  S    0.997432  -0.320539   0.000000   0.000000  -0.000000
    2  FE 1  S    0.011923   1.048411  -0.000000  -0.000000   0.000000
    3  FE 1  S    0.003427   0.027549  -0.000000   0.000000  -0.000000
    4  FE 1  S   -0.007224  -0.014309   0.000000  -0.000000   0.000000
    5  FE 1  S    0.002240   0.004289   0.000000  -0.000000   0.000000
    6  FE 1  S   -0.003459  -0.010617  -0.000000   0.000000  -0.000000
    7  FE 1  S    0.000712   0.002494  -0.000000   0.000000   0.000000
    8  FE 1  S   -0.000078  -0.000247  -0.000000   0.000000  -0.000000
    9  FE 1  X   -0.000000   0.000000   0.997422  -0.002995  -0.000001
   10  FE 1  Y    0.000000   0.000000   0.002995   0.997422   0.000000
   11  FE 1  Z    0.000000  -0.000000   0.000001  -0.000000   0.997440
   12  FE 1  X    0.000000   0.000000   0.000558  -0.000002  -0.000000
   13  FE 1  Y   -0.000000  -0.000000   0.000002   0.000558  -0.000000
   14  FE 1  Z    0.000000  -0.000000   0.000000   0.000000   0.000422
   15  FE 1  X   -0.000000  -0.000000   0.009058  -0.000027  -0.000000
   16  FE 1  Y   -0.000000   0.000000   0.000027   0.009058   0.000000
   17  FE 1  Z   -0.000000  -0.000000   0.000000  -0.000000   0.009343
   18  FE 1  X    0.000000   0.000000  -0.002503   0.000008   0.000000
   19  FE 1  Y    0.000000  -0.000000  -0.000008  -0.002503  -0.000000
   20  FE 1  Z    0.000000   0.000000  -0.000000  -0.000000  -0.002743
   21  FE 1  X   -0.000000  -0.000000   0.001127  -0.000003   0.000000
   22  FE 1  Y   -0.000000   0.000000   0.000003   0.001127   0.000000
   23  FE 1  Z   -0.000000  -0.000000   0.000000   0.000000   0.001266
   24  FE 1  X   -0.000000  -0.000000   0.000756  -0.000002  -0.000000
   25  FE 1  Y   -0.000000  -0.000000   0.000002   0.000756  -0.000000
   26  FE 1  Z    0.000000  -0.000000  -0.000000   0.000000   0.000389
   27  FE 1 XX    0.000005  -0.000170  -0.000045   0.000000   0.000000
   28  FE 1 YY    0.000005  -0.000170   0.000045  -0.000000  -0.000000
   29  FE 1 ZZ   -0.000009   0.000340  -0.000000  -0.000000  -0.000000
   30  FE 1 XY   -0.000000  -0.000000   0.000000   0.000052  -0.000000
   31  FE 1 XZ    0.000000   0.000000   0.000000   0.000000   0.000000
   32  FE 1 YZ    0.000000  -0.000000   0.000000   0.000000  -0.000000
   33  FE 1 XX   -0.000021  -0.000249   0.000159  -0.000000  -0.000000
   34  FE 1 YY   -0.000021  -0.000249  -0.000159   0.000000   0.000000
   35  FE 1 ZZ    0.000041   0.000497  -0.000000   0.000000   0.000000
   36  FE 1 XY    0.000000  -0.000000  -0.000001  -0.000184   0.000000
   37  FE 1 XZ    0.000000   0.000000   0.000000  -0.000000  -0.000000
   38  FE 1 YZ    0.000000   0.000000  -0.000000  -0.000000   0.000000
   39  FE 1 XX    0.000144   0.000732  -0.000421   0.000001   0.000000
   40  FE 1 YY    0.000144   0.000732   0.000421  -0.000001  -0.000000
   41  FE 1 ZZ   -0.000288  -0.001464   0.000000  -0.000000   0.000000
   42  FE 1 XY   -0.000000  -0.000000   0.000001   0.000486  -0.000000
   43  FE 1 XZ   -0.000000   0.000000   0.000000   0.000000  -0.000000
   44  FE 1 YZ   -0.000000   0.000000   0.000000   0.000000   0.000000
   45  FE 1 XX   -0.000048  -0.000571   0.000581  -0.000002  -0.000000
   46  FE 1 YY   -0.000048  -0.000571  -0.000581   0.000002   0.000000
   47  FE 1 ZZ    0.000097   0.001141  -0.000000   0.000000   0.000000
   48  FE 1 XY    0.000000  -0.000000  -0.000002  -0.000671   0.000000
   49  FE 1 XZ    0.000000  -0.000000  -0.000000  -0.000000   0.000000
   50  FE 1 YZ    0.000000  -0.000000  -0.000000  -0.000000   0.000000
   51  FE 1 XXX   0.000015   0.000069   0.000011  -0.000000  -0.000000
   52  FE 1 YYY  -0.000000   0.000000   0.000000   0.000011   0.000000
   53  FE 1 ZZZ   0.000000   0.000000  -0.000000   0.000000  -0.000045
   54  FE 1 XXY   0.000000   0.000000   0.000000   0.000005  -0.000000
   55  FE 1 XXZ  -0.000000  -0.000000   0.000000  -0.000000   0.000030
   56  FE 1 YYX  -0.000021  -0.000092   0.000005  -0.000000   0.000000
   57  FE 1 YYZ   0.000000  -0.000000   0.000000  -0.000000   0.000030
   58  FE 1 ZZX  -0.000000  -0.000000  -0.000019   0.000000   0.000000
   59  FE 1 ZZY   0.000000  -0.000000  -0.000000  -0.000019   0.000000
   60  FE 1 XYZ   0.000000  -0.000000  -0.000000   0.000000  -0.000000
   61  FE 1 XXX  -0.000108  -0.000393  -0.000052   0.000000   0.000000
   62  FE 1 YYY   0.000000  -0.000000  -0.000000  -0.000052  -0.000000
   63  FE 1 ZZZ  -0.000000  -0.000000   0.000000   0.000000  -0.000079
   64  FE 1 XXY  -0.000000  -0.000000  -0.000000  -0.000023   0.000000
   65  FE 1 XXZ   0.000000  -0.000000  -0.000000  -0.000000   0.000053
   66  FE 1 YYX   0.000145   0.000527  -0.000023   0.000000   0.000000
   67  FE 1 YYZ   0.000000   0.000000  -0.000000  -0.000000   0.000053
   68  FE 1 ZZX   0.000000   0.000000   0.000094  -0.000000  -0.000000
   69  FE 1 ZZY  -0.000000   0.000000   0.000000   0.000094   0.000000
   70  FE 1 XYZ  -0.000000   0.000000   0.000000   0.000000   0.000000
   71  FE 1XXXX  -0.000018  -0.000070  -0.000011   0.000000   0.000000
   72  FE 1YYYY  -0.000018  -0.000070  -0.000004   0.000000   0.000000
   73  FE 1ZZZZ  -0.000047  -0.000188  -0.000000   0.000000   0.000000
   74  FE 1XXXY   0.000000   0.000000  -0.000000  -0.000008   0.000000
   75  FE 1XXXZ  -0.000000   0.000000   0.000000   0.000000   0.000008
   76  FE 1YYYX  -0.000000   0.000000   0.000000   0.000014   0.000000
   77  FE 1YYYZ  -0.000000  -0.000000   0.000000   0.000000   0.000000
   78  FE 1ZZZX   0.000000   0.000000   0.000000   0.000000  -0.000000
   79  FE 1ZZZY   0.000000  -0.000000   0.000000   0.000000   0.000000
   80  FE 1XXYY  -0.000010  -0.000041   0.000013  -0.000000  -0.000000
   81  FE 1XXZZ   0.000041   0.000165   0.000007  -0.000000  -0.000000
   82  FE 1YYZZ   0.000041   0.000165  -0.000007   0.000000  -0.000000
   83  FE 1XXYZ   0.000000   0.000000   0.000000   0.000000   0.000000
   84  FE 1YYXZ   0.000000  -0.000000   0.000000  -0.000000  -0.000010
   85  FE 1ZZXY   0.000000  -0.000000  -0.000000  -0.000008   0.000000
   86  C  2  S   -0.000028   0.000049   0.000003  -0.000005  -0.000000
   87  C  2  S   -0.000187  -0.000818   0.000009  -0.000016  -0.000000
   88  C  2  S    0.000506   0.001033   0.000090  -0.000157   0.000000
   89  C  2  S    0.000035   0.000052   0.000223  -0.000389   0.000000
   90  C  2  X   -0.000014  -0.000155   0.000009  -0.000013  -0.000000
   91  C  2  Y    0.000024   0.000269  -0.000013   0.000024   0.000000
   92  C  2  Z    0.000000   0.000000  -0.000000   0.000000   0.000007
   93  C  2  X    0.000105   0.000282  -0.000026   0.000066   0.000000
   94  C  2  Y   -0.000183  -0.000488   0.000065  -0.000102   0.000000
   95  C  2  Z   -0.000000   0.000000   0.000000  -0.000000   0.000002
   96  C  2  X   -0.000105  -0.000295   0.000210  -0.000296   0.000000
   97  C  2  Y    0.000182   0.000511  -0.000294   0.000553   0.000000
   98  C  2  Z   -0.000000  -0.000000   0.000000   0.000000   0.000038
   99  C  2 XX    0.000002   0.000003  -0.000001  -0.000001  -0.000000
  100  C  2 YY   -0.000006  -0.000022  -0.000001   0.000004   0.000000
  101  C  2 ZZ    0.000004   0.000019   0.000002  -0.000003   0.000000
  102  C  2 XY    0.000008   0.000025   0.000003  -0.000003  -0.000000
  103  C  2 XZ    0.000000   0.000000   0.000000   0.000000   0.000001
  104  C  2 YZ   -0.000000   0.000000   0.000000   0.000000  -0.000001
  105  C  2 XX   -0.000025  -0.000070   0.000003   0.000012   0.000000
  106  C  2 YY    0.000136   0.000396   0.000010  -0.000034   0.000000
  107  C  2 ZZ   -0.000111  -0.000326  -0.000013   0.000022  -0.000000
  108  C  2 XY   -0.000160  -0.000466  -0.000026   0.000035  -0.000000
  109  C  2 XZ   -0.000000   0.000000  -0.000000   0.000000  -0.000025
  110  C  2 YZ    0.000000  -0.000000   0.000000  -0.000000   0.000044
  111  C  2 XXX  -0.000036  -0.000132   0.000027  -0.000046  -0.000000
  112  C  2 YYY  -0.000027  -0.000099   0.000025  -0.000036   0.000000
  113  C  2 ZZZ   0.000000   0.000000  -0.000000   0.000000  -0.000002
  114  C  2 XXY  -0.000012  -0.000044   0.000006  -0.000019  -0.000000
  115  C  2 XXZ  -0.000000   0.000000   0.000000   0.000000  -0.000000
  116  C  2 YYX   0.000077   0.000280  -0.000058   0.000102   0.000000
  117  C  2 YYZ  -0.000000  -0.000000   0.000000  -0.000000   0.000003
  118  C  2 ZZX  -0.000028  -0.000102   0.000021  -0.000040  -0.000000
  119  C  2 ZZY   0.000049   0.000177  -0.000039   0.000067   0.000000
  120  C  2 XYZ   0.000000   0.000000  -0.000000   0.000000  -0.000003
  121  C  3  S   -0.000028   0.000049   0.000003   0.000005  -0.000000
  122  C  3  S   -0.000187  -0.000818   0.000009   0.000016  -0.000000
  123  C  3  S    0.000506   0.001033   0.000091   0.000156   0.000000
  124  C  3  S    0.000035   0.000052   0.000225   0.000387  -0.000000
  125  C  3  X   -0.000014  -0.000155   0.000009   0.000013   0.000000
  126  C  3  Y   -0.000024  -0.000269   0.000013   0.000024  -0.000000
  127  C  3  Z   -0.000000   0.000000  -0.000000  -0.000000   0.000007
  128  C  3  X    0.000105   0.000282  -0.000026  -0.000066  -0.000000
  129  C  3  Y    0.000183   0.000488  -0.000066  -0.000102  -0.000000
  130  C  3  Z    0.000000  -0.000000   0.000000   0.000000   0.000002
  131  C  3  X   -0.000105  -0.000295   0.000211   0.000295  -0.000000
  132  C  3  Y   -0.000182  -0.000511   0.000297   0.000551  -0.000000
  133  C  3  Z   -0.000000  -0.000000   0.000000   0.000000   0.000038
  134  C  3 XX    0.000002   0.000003  -0.000001   0.000001   0.000000
  135  C  3 YY   -0.000006  -0.000022  -0.000001  -0.000004   0.000000
  136  C  3 ZZ    0.000004   0.000019   0.000002   0.000003  -0.000000
  137  C  3 XY   -0.000008  -0.000025  -0.000003  -0.000003   0.000000
  138  C  3 XZ    0.000000  -0.000000   0.000000  -0.000000   0.000001
  139  C  3 YZ    0.000000  -0.000000  -0.000000  -0.000000   0.000001
  140  C  3 XX   -0.000025  -0.000070   0.000003  -0.000012  -0.000000
  141  C  3 YY    0.000136   0.000396   0.000010   0.000034   0.000000
  142  C  3 ZZ   -0.000111  -0.000326  -0.000013  -0.000022  -0.000000
  143  C  3 XY    0.000160   0.000466   0.000027   0.000035   0.000000
  144  C  3 XZ    0.000000   0.000000  -0.000000  -0.000000  -0.000025
  145  C  3 YZ    0.000000   0.000000  -0.000000  -0.000000  -0.000044
  146  C  3 XXX  -0.000036  -0.000132   0.000028   0.000046   0.000000
  147  C  3 YYY   0.000027   0.000099  -0.000025  -0.000036  -0.000000
  148  C  3 ZZZ   0.000000   0.000000  -0.000000  -0.000000  -0.000002
  149  C  3 XXY   0.000012   0.000044  -0.000006  -0.000019   0.000000
  150  C  3 XXZ   0.000000   0.000000   0.000000   0.000000  -0.000000
  151  C  3 YYX   0.000077   0.000280  -0.000059  -0.000101   0.000000
  152  C  3 YYZ  -0.000000  -0.000000   0.000000   0.000000   0.000003
  153  C  3 ZZX  -0.000028  -0.000102   0.000022   0.000039  -0.000000
  154  C  3 ZZY  -0.000049  -0.000177   0.000040   0.000067   0.000000
  155  C  3 XYZ   0.000000  -0.000000   0.000000   0.000000   0.000003
  156  C  4  S   -0.000028   0.000049  -0.000005   0.000000   0.000000
  157  C  4  S   -0.000187  -0.000818  -0.000019   0.000000   0.000000
  158  C  4  S    0.000506   0.001033  -0.000181   0.000001  -0.000000
  159  C  4  S    0.000035   0.000052  -0.000448   0.000001   0.000000
  160  C  4  X    0.000028   0.000310   0.000031  -0.000000  -0.000000
  161  C  4  Y    0.000000   0.000000   0.000000   0.000002   0.000000
  162  C  4  Z    0.000000  -0.000000  -0.000000  -0.000000   0.000007
  163  C  4  X   -0.000211  -0.000563  -0.000140   0.000000   0.000000
  164  C  4  Y    0.000000   0.000000   0.000000   0.000012   0.000000
  165  C  4  Z   -0.000000   0.000000   0.000000  -0.000000   0.000002
  166  C  4  X    0.000210   0.000590   0.000722  -0.000002  -0.000000
  167  C  4  Y   -0.000000   0.000000   0.000000   0.000040   0.000000
  168  C  4  Z   -0.000000  -0.000000  -0.000000   0.000000   0.000038
  169  C  4 XX   -0.000010  -0.000035   0.000006  -0.000000  -0.000000
  170  C  4 YY    0.000005   0.000016  -0.000002   0.000000  -0.000000
  171  C  4 ZZ    0.000004   0.000019  -0.000004   0.000000   0.000000
  172  C  4 XY    0.000000  -0.000000   0.000000   0.000002  -0.000000
  173  C  4 XZ    0.000000   0.000000   0.000000   0.000000  -0.000001
  174  C  4 YZ    0.000000  -0.000000   0.000000   0.000000  -0.000000
  175  C  4 XX    0.000216   0.000629  -0.000057   0.000000  -0.000000
  176  C  4 YY   -0.000105  -0.000303   0.000031  -0.000000   0.000000
  177  C  4 ZZ   -0.000111  -0.000326   0.000026  -0.000000   0.000000
  178  C  4 XY    0.000000   0.000000  -0.000000  -0.000011   0.000000
  179  C  4 XZ    0.000000   0.000000   0.000000  -0.000000   0.000051
  180  C  4 YZ   -0.000000   0.000000   0.000000   0.000000   0.000000
  181  C  4 XXX  -0.000083  -0.000304  -0.000129   0.000000   0.000000
  182  C  4 YYY  -0.000000   0.000000  -0.000000  -0.000002   0.000000
  183  C  4 ZZZ   0.000000  -0.000000  -0.000000  -0.000000  -0.000002
  184  C  4 XXY   0.000000   0.000000   0.000000   0.000004  -0.000000
  185  C  4 XXZ  -0.000000   0.000000   0.000000  -0.000000   0.000004
  186  C  4 YYX   0.000056   0.000203   0.000083  -0.000000  -0.000000
  187  C  4 YYZ   0.000000  -0.000000   0.000000   0.000000  -0.000001
  188  C  4 ZZX   0.000056   0.000204   0.000090  -0.000000  -0.000000
  189  C  4 ZZY   0.000000  -0.000000  -0.000000  -0.000001   0.000000
  190  C  4 XYZ   0.000000   0.000000   0.000000   0.000000   0.000000
  191  O  5  S   -0.000000  -0.000023   0.000002  -0.000003   0.000000
  192  O  5  S    0.000016   0.000082  -0.000005   0.000008  -0.000000
  193  O  5  S    0.000007   0.000195  -0.000147   0.000257   0.000000
  194  O  5  S   -0.000359  -0.000946   0.000281  -0.000491  -0.000000
  195  O  5  X   -0.000001   0.000034   0.000003  -0.000001  -0.000000
  196  O  5  Y    0.000002  -0.000059  -0.000000   0.000004  -0.000000
  197  O  5  Z    0.000000   0.000000  -0.000000   0.000000   0.000000
  198  O  5  X    0.000029   0.000168  -0.000022   0.000051   0.000000
  199  O  5  Y   -0.000050  -0.000291   0.000051  -0.000081   0.000000
  200  O  5  Z    0.000000  -0.000000  -0.000000   0.000000  -0.000014
  201  O  5  X   -0.000052  -0.000091   0.000021  -0.000054  -0.000000
  202  O  5  Y    0.000090   0.000158  -0.000054   0.000084   0.000000
  203  O  5  Z    0.000000   0.000000  -0.000000   0.000000  -0.000037
  204  O  5 XX   -0.000001  -0.000004   0.000002  -0.000002   0.000000
  205  O  5 YY    0.000006   0.000024  -0.000006   0.000009  -0.000000
  206  O  5 ZZ   -0.000005  -0.000020   0.000004  -0.000007  -0.000000
  207  O  5 XY   -0.000007  -0.000029   0.000006  -0.000012  -0.000000
  208  O  5 XZ    0.000000  -0.000000   0.000000   0.000000   0.000002
  209  O  5 YZ   -0.000000   0.000000   0.000000   0.000000  -0.000003
  210  O  5 XX   -0.000004  -0.000017  -0.000005  -0.000002  -0.000000
  211  O  5 YY    0.000019   0.000076   0.000003   0.000006  -0.000000
  212  O  5 ZZ   -0.000015  -0.000059   0.000002  -0.000003   0.000000
  213  O  5 XY   -0.000023  -0.000093   0.000005  -0.000001   0.000000
  214  O  5 XZ    0.000000  -0.000000  -0.000000   0.000000  -0.000009
  215  O  5 YZ   -0.000000  -0.000000   0.000000  -0.000000   0.000016
  216  O  5 XXX  -0.000007  -0.000023   0.000001  -0.000002   0.000000
  217  O  5 YYY  -0.000005  -0.000016  -0.000000  -0.000003   0.000000
  218  O  5 ZZZ  -0.000000   0.000000   0.000000   0.000000   0.000001
  219  O  5 XXY  -0.000002  -0.000007   0.000002  -0.000000   0.000000
  220  O  5 XXZ   0.000000   0.000000   0.000000  -0.000000  -0.000000
  221  O  5 YYX   0.000014   0.000048  -0.000003   0.000005  -0.000000
  222  O  5 YYZ   0.000000   0.000000  -0.000000   0.000000  -0.000001
  223  O  5 ZZX  -0.000005  -0.000017   0.000002  -0.000002   0.000000
  224  O  5 ZZY   0.000008   0.000029  -0.000002   0.000004  -0.000000
  225  O  5 XYZ  -0.000000   0.000000   0.000000  -0.000000   0.000001
  226  O  6  S   -0.000000  -0.000023   0.000002   0.000003   0.000000
  227  O  6  S    0.000016   0.000082  -0.000005  -0.000008  -0.000000
  228  O  6  S    0.000007   0.000195  -0.000149  -0.000256   0.000000
  229  O  6  S   -0.000359  -0.000946   0.000284   0.000489  -0.000000
  230  O  6  X   -0.000001   0.000034   0.000003   0.000000   0.000000
  231  O  6  Y   -0.000002   0.000059   0.000001   0.000004   0.000000
  232  O  6  Z    0.000000   0.000000  -0.000000  -0.000000   0.000000
  233  O  6  X    0.000029   0.000168  -0.000022  -0.000051  -0.000000
  234  O  6  Y    0.000050   0.000291  -0.000051  -0.000081  -0.000000
  235  O  6  Z    0.000000  -0.000000  -0.000000  -0.000000  -0.000014
  236  O  6  X   -0.000052  -0.000091   0.000021   0.000054  -0.000000
  237  O  6  Y   -0.000090  -0.000158   0.000055   0.000084  -0.000000
  238  O  6  Z    0.000000   0.000000  -0.000000  -0.000000  -0.000037
  239  O  6 XX   -0.000001  -0.000004   0.000002   0.000002  -0.000000
  240  O  6 YY    0.000006   0.000024  -0.000006  -0.000009   0.000000
[...]
-rw-r-----. 1 bjb2chen bjb2chen         0 May 27 15:01 /localscratch/bjb2chen.29656334.0/FeCO_SPK_gmcpt_C1_17st_diab_0.05_+x7q15.F90.015
-rw-r-----. 1 bjb2chen bjb2chen    103000 May 27 20:32 /localscratch/bjb2chen.29656334.0/FeCO_SPK_gmcpt_C1_17st_diab_0.05_+x7q15.F91
-rw-r-----. 1 bjb2chen bjb2chen    103000 May 27 20:32 /localscratch/bjb2chen.29656334.0/FeCO_SPK_gmcpt_C1_17st_diab_0.05_+x7q15.F91.001
-rw-r-----. 1 bjb2chen bjb2chen    103000 May 27 20:32 /localscratch/bjb2chen.29656334.0/FeCO_SPK_gmcpt_C1_17st_diab_0.05_+x7q15.F91.002
-rw-r-----. 1 bjb2chen bjb2chen    103000 May 27 20:32 /localscratch/bjb2chen.29656334.0/FeCO_SPK_gmcpt_C1_17st_diab_0.05_+x7q15.F91.003
-rw-r-----. 1 bjb2chen bjb2chen    103000 May 27 20:32 /localscratch/bjb2chen.29656334.0/FeCO_SPK_gmcpt_C1_17st_diab_0.05_+x7q15.F91.004
-rw-r-----. 1 bjb2chen bjb2chen    103000 May 27 20:32 /localscratch/bjb2chen.29656334.0/FeCO_SPK_gmcpt_C1_17st_diab_0.05_+x7q15.F91.005
-rw-r-----. 1 bjb2chen bjb2chen    103000 May 27 20:32 /localscratch/bjb2chen.29656334.0/FeCO_SPK_gmcpt_C1_17st_diab_0.05_+x7q15.F91.006
-rw-r-----. 1 bjb2chen bjb2chen    103000 May 27 20:32 /localscratch/bjb2chen.29656334.0/FeCO_SPK_gmcpt_C1_17st_diab_0.05_+x7q15.F91.007
-rw-r-----. 1 bjb2chen bjb2chen    103000 May 27 20:32 /localscratch/bjb2chen.29656334.0/FeCO_SPK_gmcpt_C1_17st_diab_0.05_+x7q15.F91.008
-rw-r-----. 1 bjb2chen bjb2chen    103000 May 27 20:32 /localscratch/bjb2chen.29656334.0/FeCO_SPK_gmcpt_C1_17st_diab_0.05_+x7q15.F91.009
-rw-r-----. 1 bjb2chen bjb2chen    103000 May 27 20:32 /localscratch/bjb2chen.29656334.0/FeCO_SPK_gmcpt_C1_17st_diab_0.05_+x7q15.F91.010
-rw-r-----. 1 bjb2chen bjb2chen    103000 May 27 20:32 /localscratch/bjb2chen.29656334.0/FeCO_SPK_gmcpt_C1_17st_diab_0.05_+x7q15.F91.011
-rw-r-----. 1 bjb2chen bjb2chen    103000 May 27 20:32 /localscratch/bjb2chen.29656334.0/FeCO_SPK_gmcpt_C1_17st_diab_0.05_+x7q15.F91.012
-rw-r-----. 1 bjb2chen bjb2chen    103000 May 27 20:32 /localscratch/bjb2chen.29656334.0/FeCO_SPK_gmcpt_C1_17st_diab_0.05_+x7q15.F91.013
-rw-r-----. 1 bjb2chen bjb2chen    103000 May 27 20:32 /localscratch/bjb2chen.29656334.0/FeCO_SPK_gmcpt_C1_17st_diab_0.05_+x7q15.F91.014
-rw-r-----. 1 bjb2chen bjb2chen    103000 May 27 20:32 /localscratch/bjb2chen.29656334.0/FeCO_SPK_gmcpt_C1_17st_diab_0.05_+x7q15.F91.015
-rw-r-----. 1 bjb2chen bjb2chen     91560 May 27 20:32 /localscratch/bjb2chen.29656334.0/FeCO_SPK_gmcpt_C1_17st_diab_0.05_+x7q15.F92
-rw-r-----. 1 bjb2chen bjb2chen     91560 May 27 20:32 /localscratch/bjb2chen.29656334.0/FeCO_SPK_gmcpt_C1_17st_diab_0.05_+x7q15.F92.001
-rw-r-----. 1 bjb2chen bjb2chen     91560 May 27 20:32 /localscratch/bjb2chen.29656334.0/FeCO_SPK_gmcpt_C1_17st_diab_0.05_+x7q15.F92.002
-rw-r-----. 1 bjb2chen bjb2chen     91560 May 27 20:32 /localscratch/bjb2chen.29656334.0/FeCO_SPK_gmcpt_C1_17st_diab_0.05_+x7q15.F92.003
-rw-r-----. 1 bjb2chen bjb2chen     91560 May 27 20:32 /localscratch/bjb2chen.29656334.0/FeCO_SPK_gmcpt_C1_17st_diab_0.05_+x7q15.F92.004
-rw-r-----. 1 bjb2chen bjb2chen     91560 May 27 20:32 /localscratch/bjb2chen.29656334.0/FeCO_SPK_gmcpt_C1_17st_diab_0.05_+x7q15.F92.005
-rw-r-----. 1 bjb2chen bjb2chen     91560 May 27 20:32 /localscratch/bjb2chen.29656334.0/FeCO_SPK_gmcpt_C1_17st_diab_0.05_+x7q15.F92.006
-rw-r-----. 1 bjb2chen bjb2chen     91560 May 27 20:32 /localscratch/bjb2chen.29656334.0/FeCO_SPK_gmcpt_C1_17st_diab_0.05_+x7q15.F92.007
-rw-r-----. 1 bjb2chen bjb2chen     91560 May 27 20:32 /localscratch/bjb2chen.29656334.0/FeCO_SPK_gmcpt_C1_17st_diab_0.05_+x7q15.F92.008
-rw-r-----. 1 bjb2chen bjb2chen     91560 May 27 20:32 /localscratch/bjb2chen.29656334.0/FeCO_SPK_gmcpt_C1_17st_diab_0.05_+x7q15.F92.009
-rw-r-----. 1 bjb2chen bjb2chen     91560 May 27 20:32 /localscratch/bjb2chen.29656334.0/FeCO_SPK_gmcpt_C1_17st_diab_0.05_+x7q15.F92.010
-rw-r-----. 1 bjb2chen bjb2chen     91560 May 27 20:32 /localscratch/bjb2chen.29656334.0/FeCO_SPK_gmcpt_C1_17st_diab_0.05_+x7q15.F92.011
-rw-r-----. 1 bjb2chen bjb2chen     91560 May 27 20:32 /localscratch/bjb2chen.29656334.0/FeCO_SPK_gmcpt_C1_17st_diab_0.05_+x7q15.F92.012
-rw-r-----. 1 bjb2chen bjb2chen     91560 May 27 20:32 /localscratch/bjb2chen.29656334.0/FeCO_SPK_gmcpt_C1_17st_diab_0.05_+x7q15.F92.013
-rw-r-----. 1 bjb2chen bjb2chen     91560 May 27 20:32 /localscratch/bjb2chen.29656334.0/FeCO_SPK_gmcpt_C1_17st_diab_0.05_+x7q15.F92.014
-rw-r-----. 1 bjb2chen bjb2chen     91560 May 27 20:32 /localscratch/bjb2chen.29656334.0/FeCO_SPK_gmcpt_C1_17st_diab_0.05_+x7q15.F92.015
-rw-r-----. 1 bjb2chen bjb2chen     64104 May 27 20:32 /localscratch/bjb2chen.29656334.0/FeCO_SPK_gmcpt_C1_17st_diab_0.05_+x7q15.F93
-rw-r-----. 1 bjb2chen bjb2chen     64104 May 27 20:32 /localscratch/bjb2chen.29656334.0/FeCO_SPK_gmcpt_C1_17st_diab_0.05_+x7q15.F93.001
-rw-r-----. 1 bjb2chen bjb2chen     64104 May 27 20:32 /localscratch/bjb2chen.29656334.0/FeCO_SPK_gmcpt_C1_17st_diab_0.05_+x7q15.F93.002
-rw-r-----. 1 bjb2chen bjb2chen     64104 May 27 20:32 /localscratch/bjb2chen.29656334.0/FeCO_SPK_gmcpt_C1_17st_diab_0.05_+x7q15.F93.003
-rw-r-----. 1 bjb2chen bjb2chen     64104 May 27 20:32 /localscratch/bjb2chen.29656334.0/FeCO_SPK_gmcpt_C1_17st_diab_0.05_+x7q15.F93.004
-rw-r-----. 1 bjb2chen bjb2chen     64104 May 27 20:32 /localscratch/bjb2chen.29656334.0/FeCO_SPK_gmcpt_C1_17st_diab_0.05_+x7q15.F93.005
-rw-r-----. 1 bjb2chen bjb2chen     64104 May 27 20:32 /localscratch/bjb2chen.29656334.0/FeCO_SPK_gmcpt_C1_17st_diab_0.05_+x7q15.F93.006
-rw-r-----. 1 bjb2chen bjb2chen     64104 May 27 20:32 /localscratch/bjb2chen.29656334.0/FeCO_SPK_gmcpt_C1_17st_diab_0.05_+x7q15.F93.007
-rw-r-----. 1 bjb2chen bjb2chen     64104 May 27 20:32 /localscratch/bjb2chen.29656334.0/FeCO_SPK_gmcpt_C1_17st_diab_0.05_+x7q15.F93.008
-rw-r-----. 1 bjb2chen bjb2chen     64104 May 27 20:32 /localscratch/bjb2chen.29656334.0/FeCO_SPK_gmcpt_C1_17st_diab_0.05_+x7q15.F93.009
-rw-r-----. 1 bjb2chen bjb2chen     64104 May 27 20:32 /localscratch/bjb2chen.29656334.0/FeCO_SPK_gmcpt_C1_17st_diab_0.05_+x7q15.F93.010
-rw-r-----. 1 bjb2chen bjb2chen     64104 May 27 20:32 /localscratch/bjb2chen.29656334.0/FeCO_SPK_gmcpt_C1_17st_diab_0.05_+x7q15.F93.011
-rw-r-----. 1 bjb2chen bjb2chen     64104 May 27 20:32 /localscratch/bjb2chen.29656334.0/FeCO_SPK_gmcpt_C1_17st_diab_0.05_+x7q15.F93.012
-rw-r-----. 1 bjb2chen bjb2chen     64104 May 27 20:32 /localscratch/bjb2chen.29656334.0/FeCO_SPK_gmcpt_C1_17st_diab_0.05_+x7q15.F93.013
-rw-r-----. 1 bjb2chen bjb2chen     64104 May 27 20:32 /localscratch/bjb2chen.29656334.0/FeCO_SPK_gmcpt_C1_17st_diab_0.05_+x7q15.F93.014
-rw-r-----. 1 bjb2chen bjb2chen     64104 May 27 20:32 /localscratch/bjb2chen.29656334.0/FeCO_SPK_gmcpt_C1_17st_diab_0.05_+x7q15.F93.015
-rw-r-----. 1 bjb2chen bjb2chen     34984 May 27 20:32 /localscratch/bjb2chen.29656334.0/FeCO_SPK_gmcpt_C1_17st_diab_0.05_+x7q15.F94
-rw-r-----. 1 bjb2chen bjb2chen     34984 May 27 20:32 /localscratch/bjb2chen.29656334.0/FeCO_SPK_gmcpt_C1_17st_diab_0.05_+x7q15.F94.001
-rw-r-----. 1 bjb2chen bjb2chen     34984 May 27 20:32 /localscratch/bjb2chen.29656334.0/FeCO_SPK_gmcpt_C1_17st_diab_0.05_+x7q15.F94.002
-rw-r-----. 1 bjb2chen bjb2chen     34984 May 27 20:32 /localscratch/bjb2chen.29656334.0/FeCO_SPK_gmcpt_C1_17st_diab_0.05_+x7q15.F94.003
-rw-r-----. 1 bjb2chen bjb2chen     34984 May 27 20:32 /localscratch/bjb2chen.29656334.0/FeCO_SPK_gmcpt_C1_17st_diab_0.05_+x7q15.F94.004
-rw-r-----. 1 bjb2chen bjb2chen     34984 May 27 20:32 /localscratch/bjb2chen.29656334.0/FeCO_SPK_gmcpt_C1_17st_diab_0.05_+x7q15.F94.005
-rw-r-----. 1 bjb2chen bjb2chen     34984 May 27 20:32 /localscratch/bjb2chen.29656334.0/FeCO_SPK_gmcpt_C1_17st_diab_0.05_+x7q15.F94.006
-rw-r-----. 1 bjb2chen bjb2chen     34984 May 27 20:32 /localscratch/bjb2chen.29656334.0/FeCO_SPK_gmcpt_C1_17st_diab_0.05_+x7q15.F94.007
-rw-r-----. 1 bjb2chen bjb2chen     34984 May 27 20:32 /localscratch/bjb2chen.29656334.0/FeCO_SPK_gmcpt_C1_17st_diab_0.05_+x7q15.F94.008
-rw-r-----. 1 bjb2chen bjb2chen     34984 May 27 20:32 /localscratch/bjb2chen.29656334.0/FeCO_SPK_gmcpt_C1_17st_diab_0.05_+x7q15.F94.009
-rw-r-----. 1 bjb2chen bjb2chen     34984 May 27 20:32 /localscratch/bjb2chen.29656334.0/FeCO_SPK_gmcpt_C1_17st_diab_0.05_+x7q15.F94.010
-rw-r-----. 1 bjb2chen bjb2chen     34984 May 27 20:32 /localscratch/bjb2chen.29656334.0/FeCO_SPK_gmcpt_C1_17st_diab_0.05_+x7q15.F94.011
-rw-r-----. 1 bjb2chen bjb2chen     34984 May 27 20:32 /localscratch/bjb2chen.29656334.0/FeCO_SPK_gmcpt_C1_17st_diab_0.05_+x7q15.F94.012
-rw-r-----. 1 bjb2chen bjb2chen     34984 May 27 20:32 /localscratch/bjb2chen.29656334.0/FeCO_SPK_gmcpt_C1_17st_diab_0.05_+x7q15.F94.013
-rw-r-----. 1 bjb2chen bjb2chen     34984 May 27 20:32 /localscratch/bjb2chen.29656334.0/FeCO_SPK_gmcpt_C1_17st_diab_0.05_+x7q15.F94.014
-rw-r-----. 1 bjb2chen bjb2chen     34984 May 27 20:32 /localscratch/bjb2chen.29656334.0/FeCO_SPK_gmcpt_C1_17st_diab_0.05_+x7q15.F94.015
-rw-r-----. 1 bjb2chen bjb2chen     14600 May 27 20:32 /localscratch/bjb2chen.29656334.0/FeCO_SPK_gmcpt_C1_17st_diab_0.05_+x7q15.F95
-rw-r-----. 1 bjb2chen bjb2chen     14600 May 27 20:32 /localscratch/bjb2chen.29656334.0/FeCO_SPK_gmcpt_C1_17st_diab_0.05_+x7q15.F95.001
-rw-r-----. 1 bjb2chen bjb2chen     14600 May 27 20:32 /localscratch/bjb2chen.29656334.0/FeCO_SPK_gmcpt_C1_17st_diab_0.05_+x7q15.F95.002
-rw-r-----. 1 bjb2chen bjb2chen     14600 May 27 20:32 /localscratch/bjb2chen.29656334.0/FeCO_SPK_gmcpt_C1_17st_diab_0.05_+x7q15.F95.003
-rw-r-----. 1 bjb2chen bjb2chen     14600 May 27 20:32 /localscratch/bjb2chen.29656334.0/FeCO_SPK_gmcpt_C1_17st_diab_0.05_+x7q15.F95.004
-rw-r-----. 1 bjb2chen bjb2chen     14600 May 27 20:32 /localscratch/bjb2chen.29656334.0/FeCO_SPK_gmcpt_C1_17st_diab_0.05_+x7q15.F95.005
-rw-r-----. 1 bjb2chen bjb2chen     14600 May 27 20:32 /localscratch/bjb2chen.29656334.0/FeCO_SPK_gmcpt_C1_17st_diab_0.05_+x7q15.F95.006
-rw-r-----. 1 bjb2chen bjb2chen     14600 May 27 20:32 /localscratch/bjb2chen.29656334.0/FeCO_SPK_gmcpt_C1_17st_diab_0.05_+x7q15.F95.007
-rw-r-----. 1 bjb2chen bjb2chen     14600 May 27 20:32 /localscratch/bjb2chen.29656334.0/FeCO_SPK_gmcpt_C1_17st_diab_0.05_+x7q15.F95.008
-rw-r-----. 1 bjb2chen bjb2chen     14600 May 27 20:32 /localscratch/bjb2chen.29656334.0/FeCO_SPK_gmcpt_C1_17st_diab_0.05_+x7q15.F95.009
-rw-r-----. 1 bjb2chen bjb2chen     14600 May 27 20:32 /localscratch/bjb2chen.29656334.0/FeCO_SPK_gmcpt_C1_17st_diab_0.05_+x7q15.F95.010
-rw-r-----. 1 bjb2chen bjb2chen     14600 May 27 20:32 /localscratch/bjb2chen.29656334.0/FeCO_SPK_gmcpt_C1_17st_diab_0.05_+x7q15.F95.011
-rw-r-----. 1 bjb2chen bjb2chen     14600 May 27 20:32 /localscratch/bjb2chen.29656334.0/FeCO_SPK_gmcpt_C1_17st_diab_0.05_+x7q15.F95.012
-rw-r-----. 1 bjb2chen bjb2chen     14600 May 27 20:32 /localscratch/bjb2chen.29656334.0/FeCO_SPK_gmcpt_C1_17st_diab_0.05_+x7q15.F95.013
-rw-r-----. 1 bjb2chen bjb2chen     14600 May 27 20:32 /localscratch/bjb2chen.29656334.0/FeCO_SPK_gmcpt_C1_17st_diab_0.05_+x7q15.F95.014
-rw-r-----. 1 bjb2chen bjb2chen     14600 May 27 20:32 /localscratch/bjb2chen.29656334.0/FeCO_SPK_gmcpt_C1_17st_diab_0.05_+x7q15.F95.015
-rw-r-----. 1 bjb2chen bjb2chen   1089240 May 28 01:27 /localscratch/bjb2chen.29656334.0/FeCO_SPK_gmcpt_C1_17st_diab_0.05_+x7q15.F96
-rw-r-----. 1 bjb2chen bjb2chen   1089240 May 28 01:27 /localscratch/bjb2chen.29656334.0/FeCO_SPK_gmcpt_C1_17st_diab_0.05_+x7q15.F96.001
-rw-r-----. 1 bjb2chen bjb2chen   1089240 May 28 01:27 /localscratch/bjb2chen.29656334.0/FeCO_SPK_gmcpt_C1_17st_diab_0.05_+x7q15.F96.002
-rw-r-----. 1 bjb2chen bjb2chen   1089240 May 28 01:27 /localscratch/bjb2chen.29656334.0/FeCO_SPK_gmcpt_C1_17st_diab_0.05_+x7q15.F96.003
-rw-r-----. 1 bjb2chen bjb2chen   1089240 May 28 01:27 /localscratch/bjb2chen.29656334.0/FeCO_SPK_gmcpt_C1_17st_diab_0.05_+x7q15.F96.004
-rw-r-----. 1 bjb2chen bjb2chen   1089240 May 28 01:27 /localscratch/bjb2chen.29656334.0/FeCO_SPK_gmcpt_C1_17st_diab_0.05_+x7q15.F96.005
-rw-r-----. 1 bjb2chen bjb2chen   1089240 May 28 01:27 /localscratch/bjb2chen.29656334.0/FeCO_SPK_gmcpt_C1_17st_diab_0.05_+x7q15.F96.006
-rw-r-----. 1 bjb2chen bjb2chen   1089240 May 28 01:27 /localscratch/bjb2chen.29656334.0/FeCO_SPK_gmcpt_C1_17st_diab_0.05_+x7q15.F96.007
-rw-r-----. 1 bjb2chen bjb2chen   1089240 May 28 01:27 /localscratch/bjb2chen.29656334.0/FeCO_SPK_gmcpt_C1_17st_diab_0.05_+x7q15.F96.008
-rw-r-----. 1 bjb2chen bjb2chen   1089240 May 28 01:27 /localscratch/bjb2chen.29656334.0/FeCO_SPK_gmcpt_C1_17st_diab_0.05_+x7q15.F96.009
-rw-r-----. 1 bjb2chen bjb2chen   1089240 May 28 01:27 /localscratch/bjb2chen.29656334.0/FeCO_SPK_gmcpt_C1_17st_diab_0.05_+x7q15.F96.010
-rw-r-----. 1 bjb2chen bjb2chen   1089240 May 28 01:27 /localscratch/bjb2chen.29656334.0/FeCO_SPK_gmcpt_C1_17st_diab_0.05_+x7q15.F96.011
-rw-r-----. 1 bjb2chen bjb2chen   1089240 May 28 01:27 /localscratch/bjb2chen.29656334.0/FeCO_SPK_gmcpt_C1_17st_diab_0.05_+x7q15.F96.012
-rw-r-----. 1 bjb2chen bjb2chen   1089240 May 28 01:27 /localscratch/bjb2chen.29656334.0/FeCO_SPK_gmcpt_C1_17st_diab_0.05_+x7q15.F96.013
-rw-r-----. 1 bjb2chen bjb2chen   1089240 May 28 01:27 /localscratch/bjb2chen.29656334.0/FeCO_SPK_gmcpt_C1_17st_diab_0.05_+x7q15.F96.014
-rw-r-----. 1 bjb2chen bjb2chen   1089240 May 28 01:27 /localscratch/bjb2chen.29656334.0/FeCO_SPK_gmcpt_C1_17st_diab_0.05_+x7q15.F96.015
-rw-r-----. 1 bjb2chen bjb2chen      1544 May 27 20:16 /localscratch/bjb2chen.29656334.0/FeCO_SPK_gmcpt_C1_17st_diab_0.05_+x7q15.F97
-rw-r-----. 1 bjb2chen bjb2chen      1544 May 27 20:16 /localscratch/bjb2chen.29656334.0/FeCO_SPK_gmcpt_C1_17st_diab_0.05_+x7q15.F97.001
-rw-r-----. 1 bjb2chen bjb2chen      1544 May 27 20:16 /localscratch/bjb2chen.29656334.0/FeCO_SPK_gmcpt_C1_17st_diab_0.05_+x7q15.F97.002
-rw-r-----. 1 bjb2chen bjb2chen      1544 May 27 20:16 /localscratch/bjb2chen.29656334.0/FeCO_SPK_gmcpt_C1_17st_diab_0.05_+x7q15.F97.003
-rw-r-----. 1 bjb2chen bjb2chen      1544 May 27 20:16 /localscratch/bjb2chen.29656334.0/FeCO_SPK_gmcpt_C1_17st_diab_0.05_+x7q15.F97.004
-rw-r-----. 1 bjb2chen bjb2chen      1544 May 27 20:16 /localscratch/bjb2chen.29656334.0/FeCO_SPK_gmcpt_C1_17st_diab_0.05_+x7q15.F97.005
-rw-r-----. 1 bjb2chen bjb2chen      1544 May 27 20:16 /localscratch/bjb2chen.29656334.0/FeCO_SPK_gmcpt_C1_17st_diab_0.05_+x7q15.F97.006
-rw-r-----. 1 bjb2chen bjb2chen      1544 May 27 20:16 /localscratch/bjb2chen.29656334.0/FeCO_SPK_gmcpt_C1_17st_diab_0.05_+x7q15.F97.007
-rw-r-----. 1 bjb2chen bjb2chen      1544 May 27 20:16 /localscratch/bjb2chen.29656334.0/FeCO_SPK_gmcpt_C1_17st_diab_0.05_+x7q15.F97.008
-rw-r-----. 1 bjb2chen bjb2chen      1544 May 27 20:16 /localscratch/bjb2chen.29656334.0/FeCO_SPK_gmcpt_C1_17st_diab_0.05_+x7q15.F97.009
-rw-r-----. 1 bjb2chen bjb2chen      1544 May 27 20:16 /localscratch/bjb2chen.29656334.0/FeCO_SPK_gmcpt_C1_17st_diab_0.05_+x7q15.F97.010
-rw-r-----. 1 bjb2chen bjb2chen      1544 May 27 20:16 /localscratch/bjb2chen.29656334.0/FeCO_SPK_gmcpt_C1_17st_diab_0.05_+x7q15.F97.011
-rw-r-----. 1 bjb2chen bjb2chen      1544 May 27 20:16 /localscratch/bjb2chen.29656334.0/FeCO_SPK_gmcpt_C1_17st_diab_0.05_+x7q15.F97.012
-rw-r-----. 1 bjb2chen bjb2chen      1544 May 27 20:16 /localscratch/bjb2chen.29656334.0/FeCO_SPK_gmcpt_C1_17st_diab_0.05_+x7q15.F97.013
-rw-r-----. 1 bjb2chen bjb2chen      1544 May 27 20:16 /localscratch/bjb2chen.29656334.0/FeCO_SPK_gmcpt_C1_17st_diab_0.05_+x7q15.F97.014
-rw-r-----. 1 bjb2chen bjb2chen      1544 May 27 20:16 /localscratch/bjb2chen.29656334.0/FeCO_SPK_gmcpt_C1_17st_diab_0.05_+x7q15.F97.015
-rw-r-----. 1 bjb2chen bjb2chen     64072 May 27 20:16 /localscratch/bjb2chen.29656334.0/FeCO_SPK_gmcpt_C1_17st_diab_0.05_+x7q15.F98
-rw-r-----. 1 bjb2chen bjb2chen     64072 May 27 20:16 /localscratch/bjb2chen.29656334.0/FeCO_SPK_gmcpt_C1_17st_diab_0.05_+x7q15.F98.001
-rw-r-----. 1 bjb2chen bjb2chen     64072 May 27 20:16 /localscratch/bjb2chen.29656334.0/FeCO_SPK_gmcpt_C1_17st_diab_0.05_+x7q15.F98.002
-rw-r-----. 1 bjb2chen bjb2chen     64072 May 27 20:16 /localscratch/bjb2chen.29656334.0/FeCO_SPK_gmcpt_C1_17st_diab_0.05_+x7q15.F98.003
-rw-r-----. 1 bjb2chen bjb2chen     64072 May 27 20:16 /localscratch/bjb2chen.29656334.0/FeCO_SPK_gmcpt_C1_17st_diab_0.05_+x7q15.F98.004
-rw-r-----. 1 bjb2chen bjb2chen     64072 May 27 20:16 /localscratch/bjb2chen.29656334.0/FeCO_SPK_gmcpt_C1_17st_diab_0.05_+x7q15.F98.005
-rw-r-----. 1 bjb2chen bjb2chen     64072 May 27 20:16 /localscratch/bjb2chen.29656334.0/FeCO_SPK_gmcpt_C1_17st_diab_0.05_+x7q15.F98.006
-rw-r-----. 1 bjb2chen bjb2chen     64072 May 27 20:16 /localscratch/bjb2chen.29656334.0/FeCO_SPK_gmcpt_C1_17st_diab_0.05_+x7q15.F98.007
-rw-r-----. 1 bjb2chen bjb2chen     64072 May 27 20:16 /localscratch/bjb2chen.29656334.0/FeCO_SPK_gmcpt_C1_17st_diab_0.05_+x7q15.F98.008
-rw-r-----. 1 bjb2chen bjb2chen     64072 May 27 20:16 /localscratch/bjb2chen.29656334.0/FeCO_SPK_gmcpt_C1_17st_diab_0.05_+x7q15.F98.009
-rw-r-----. 1 bjb2chen bjb2chen     64072 May 27 20:16 /localscratch/bjb2chen.29656334.0/FeCO_SPK_gmcpt_C1_17st_diab_0.05_+x7q15.F98.010
-rw-r-----. 1 bjb2chen bjb2chen     64072 May 27 20:16 /localscratch/bjb2chen.29656334.0/FeCO_SPK_gmcpt_C1_17st_diab_0.05_+x7q15.F98.011
-rw-r-----. 1 bjb2chen bjb2chen     64072 May 27 20:16 /localscratch/bjb2chen.29656334.0/FeCO_SPK_gmcpt_C1_17st_diab_0.05_+x7q15.F98.012
-rw-r-----. 1 bjb2chen bjb2chen     64072 May 27 20:16 /localscratch/bjb2chen.29656334.0/FeCO_SPK_gmcpt_C1_17st_diab_0.05_+x7q15.F98.013
-rw-r-----. 1 bjb2chen bjb2chen     64072 May 27 20:16 /localscratch/bjb2chen.29656334.0/FeCO_SPK_gmcpt_C1_17st_diab_0.05_+x7q15.F98.014
-rw-r-----. 1 bjb2chen bjb2chen     64072 May 27 20:16 /localscratch/bjb2chen.29656334.0/FeCO_SPK_gmcpt_C1_17st_diab_0.05_+x7q15.F98.015
-rw-r-----. 1 bjb2chen bjb2chen    417112 May 27 20:16 /localscratch/bjb2chen.29656334.0/FeCO_SPK_gmcpt_C1_17st_diab_0.05_+x7q15.F99
-rw-r-----. 1 bjb2chen bjb2chen    417112 May 27 20:16 /localscratch/bjb2chen.29656334.0/FeCO_SPK_gmcpt_C1_17st_diab_0.05_+x7q15.F99.001
-rw-r-----. 1 bjb2chen bjb2chen    417112 May 27 20:16 /localscratch/bjb2chen.29656334.0/FeCO_SPK_gmcpt_C1_17st_diab_0.05_+x7q15.F99.002
-rw-r-----. 1 bjb2chen bjb2chen    417112 May 27 20:16 /localscratch/bjb2chen.29656334.0/FeCO_SPK_gmcpt_C1_17st_diab_0.05_+x7q15.F99.003
-rw-r-----. 1 bjb2chen bjb2chen    417112 May 27 20:16 /localscratch/bjb2chen.29656334.0/FeCO_SPK_gmcpt_C1_17st_diab_0.05_+x7q15.F99.004
-rw-r-----. 1 bjb2chen bjb2chen    417112 May 27 20:16 /localscratch/bjb2chen.29656334.0/FeCO_SPK_gmcpt_C1_17st_diab_0.05_+x7q15.F99.005
-rw-r-----. 1 bjb2chen bjb2chen    417112 May 27 20:16 /localscratch/bjb2chen.29656334.0/FeCO_SPK_gmcpt_C1_17st_diab_0.05_+x7q15.F99.006
-rw-r-----. 1 bjb2chen bjb2chen    417112 May 27 20:16 /localscratch/bjb2chen.29656334.0/FeCO_SPK_gmcpt_C1_17st_diab_0.05_+x7q15.F99.007
-rw-r-----. 1 bjb2chen bjb2chen    417112 May 27 20:16 /localscratch/bjb2chen.29656334.0/FeCO_SPK_gmcpt_C1_17st_diab_0.05_+x7q15.F99.008
-rw-r-----. 1 bjb2chen bjb2chen    417112 May 27 20:16 /localscratch/bjb2chen.29656334.0/FeCO_SPK_gmcpt_C1_17st_diab_0.05_+x7q15.F99.009
-rw-r-----. 1 bjb2chen bjb2chen    417112 May 27 20:16 /localscratch/bjb2chen.29656334.0/FeCO_SPK_gmcpt_C1_17st_diab_0.05_+x7q15.F99.010
-rw-r-----. 1 bjb2chen bjb2chen    417112 May 27 20:16 /localscratch/bjb2chen.29656334.0/FeCO_SPK_gmcpt_C1_17st_diab_0.05_+x7q15.F99.011
-rw-r-----. 1 bjb2chen bjb2chen    417112 May 27 20:16 /localscratch/bjb2chen.29656334.0/FeCO_SPK_gmcpt_C1_17st_diab_0.05_+x7q15.F99.012
-rw-r-----. 1 bjb2chen bjb2chen    417112 May 27 20:16 /localscratch/bjb2chen.29656334.0/FeCO_SPK_gmcpt_C1_17st_diab_0.05_+x7q15.F99.013
-rw-r-----. 1 bjb2chen bjb2chen    417112 May 27 20:16 /localscratch/bjb2chen.29656334.0/FeCO_SPK_gmcpt_C1_17st_diab_0.05_+x7q15.F99.014
-rw-r-----. 1 bjb2chen bjb2chen    417112 May 27 20:16 /localscratch/bjb2chen.29656334.0/FeCO_SPK_gmcpt_C1_17st_diab_0.05_+x7q15.F99.015
ls: No match.
ls: No match.
ls: No match.
Tue 28 May 2024 01:34:49 AM EDT
0.562u 0.610s 10:33:18.95 0.0%	0+0k 12104+5417io 34pf+0w
