SCRATCH DIRECTORY IS /localscratch/bjb2chen.29656358.0
----- GAMESS execution script 'rungms' -----
This job is running on host nc30510.narval.calcul.quebec
under operating system Linux at Mon 27 May 2024 03:07:32 PM EDT
Available scratch disk space (Kbyte units) at beginning of the job is
Filesystem        1K-blocks  Used Available Use% Mounted on
pool/localscratch 843895552 33664 843861888   1% /localscratch
GAMESS temporary binary files will be written to /localscratch/bjb2chen.29656358.0
GAMESS supplementary output files will be written to /scratch/bjb2chen/vibronics/8o9e/fastLagrangian/Apr26_redo_SOC
Copying input file FeCO_SPK_gmcpt_C1_17st_diab_0.05_-x5q15.inp to your run's scratch directory...
cp FeCO_SPK_gmcpt_C1_17st_diab_0.05_-x5q15.inp /localscratch/bjb2chen.29656358.0/FeCO_SPK_gmcpt_C1_17st_diab_0.05_-x5q15.F05
unset echo
 
Assuming a single but multicore node.
 
/home/bjb2chen/LOCAL/gamess.mrsftddft.fmo.180731/ddikick.x /home/bjb2chen/LOCAL/gamess.mrsftddft.fmo.180731/gamess.00.x FeCO_SPK_gmcpt_C1_17st_diab_0.05_-x5q15 -ddi 1 16 nc30510.narval.calcul.quebec:cpus=16 -scr /localscratch/bjb2chen.29656358.0

 Distributed Data Interface kickoff program.
 Initiating 16 compute processes on 1 nodes to run the following command:
 /home/bjb2chen/LOCAL/gamess.mrsftddft.fmo.180731/gamess.00.x FeCO_SPK_gmcpt_C1_17st_diab_0.05_-x5q15 

          ******************************************************
          *         GAMESS VERSION = 14 FEB 2018 (R1)         *
          *             FROM IOWA STATE UNIVERSITY             *
          * M.W.SCHMIDT, K.K.BALDRIDGE, J.A.BOATZ, S.T.ELBERT, *
          *   M.S.GORDON, J.H.JENSEN, S.KOSEKI, N.MATSUNAGA,   *
          *          K.A.NGUYEN, S.J.SU, T.L.WINDUS,           *
          *       TOGETHER WITH M.DUPUIS, J.A.MONTGOMERY       *
          *         J.COMPUT.CHEM.  14, 1347-1363(1993)        *
          **************** 64 BIT INTEL VERSION ****************

  SINCE 1993, STUDENTS AND POSTDOCS WORKING AT IOWA STATE UNIVERSITY
  AND ALSO IN THEIR VARIOUS JOBS AFTER LEAVING ISU HAVE MADE IMPORTANT
  CONTRIBUTIONS TO THE CODE:
     IVANA ADAMOVIC, CHRISTINE AIKENS, YURI ALEXEEV, POOJA ARORA,
     ANDREY ASADCHEV, ROB BELL, PRADIPTA BANDYOPADHYAY, JONATHAN BENTZ,
     BRETT BODE, KURT BRORSEN, CALEB CARLIN, GALINA CHABAN, WEI CHEN,
     CHEOL HO CHOI, PAUL DAY, ALBERT DEFUSCO, NUWAN DESILVA, TIM DUDLEY,
     DMITRI FEDOROV, ALEX FINDLATER, GRAHAM FLETCHER, MARK FREITAG,
     KURT GLAESEMANN, ANASTASIA GUININA,
     DAN KEMP, GRANT MERRILL, NORIYUKI MINEZAWA, JONATHAN MULLIN,
     TAKESHI NAGATA, SEAN NEDD, HEATHER NETZLOFF, BOSILJKA NJEGIC, RYAN OLSON,
     MIKE PAK, BUU PHAM,
     SPENCER PRUITT, LUKE ROSKOP, JIM SHOEMAKER, LYUDMILA SLIPCHENKO,
     TONY SMITH, SAROM SOK LEANG, JIE SONG, TETSUYA TAKETSUGU, SIMON WEBB,
     PENG XU, SOOHAENG YOO, FEDERICO ZAHARIEV

  ADDITIONAL CODE HAS BEEN PROVIDED BY COLLABORATORS IN OTHER GROUPS:
     IOWA STATE UNIVERSITY:
          JOE IVANIC, AARON WEST, LAIMUTIS BYTAUTAS, KLAUS RUEDENBERG
     UNIVERSITY OF TOKYO: KIMIHIKO HIRAO, TAKAHITO NAKAJIMA,
          TAKAO TSUNEDA, MUNEAKI KAMIYA, SUSUMU YANAGISAWA,
          KIYOSHI YAGI, MAHITO CHIBA, SEIKEN TOKURA, NAOAKI KAWAKAMI
     UNIVERSITY OF AARHUS: FRANK JENSEN
     UNIVERSITY OF IOWA: VISVALDAS KAIRYS, HUI LI
     NATIONAL INST. OF STANDARDS AND TECHNOLOGY: WALT STEVENS, DAVID GARMER
     UNIVERSITY OF PISA: BENEDETTA MENNUCCI, JACOPO TOMASI
     UNIVERSITY OF MEMPHIS: HENRY KURTZ, PRAKASHAN KORAMBATH
     UNIVERSITY OF ALBERTA: TOBY ZENG, MARIUSZ KLOBUKOWSKI
     UNIVERSITY OF NEW ENGLAND: MARK SPACKMAN
     MIE UNIVERSITY: HIROAKI UMEDA
     NAT. INST. OF ADVANCED INDUSTRIAL SCIENCE AND TECHNOLOGY: KAZUO KITAURA
     MICHIGAN STATE UNIVERSITY:
          KAROL KOWALSKI, MARTA WLOCH, JEFFREY GOUR, JESSE LUTZ,
          WEI LI, PIOTR PIECUCH
     UNIVERSITY OF SILESIA: MONIKA MUSIAL, STANISLAW KUCHARSKI
     FACULTES UNIVERSITAIRES NOTRE-DAME DE LA PAIX:
          OLIVIER QUINET, BENOIT CHAMPAGNE
     UNIVERSITY OF CALIFORNIA - SANTA BARBARA: BERNARD KIRTMAN
     INSTITUTE FOR MOLECULAR SCIENCE:
          KAZUYA ISHIMURA, MICHIO KATOUDA, AND SHIGERU NAGASE
     UNIVERSITY OF NOTRE DAME: ANNA POMOGAEVA, DAN CHIPMAN
     KYUSHU UNIVERSITY:
          HARUYUKI NAKANO,
          FENG LONG GU, JACEK KORCHOWIEC, MARCIN MAKOWSKI, AND YURIKO AOKI,
          HIROTOSHI MORI AND EISAKU MIYOSHI
     PENNSYLVANIA STATE UNIVERSITY:
          TZVETELIN IORDANOV, CHET SWALINA, JONATHAN SKONE,
          SHARON HAMMES-SCHIFFER
     WASEDA UNIVERSITY:
          MASATO KOBAYASHI, TOMOKO AKAMA, TSUGUKI TOUMA,
          TAKESHI YOSHIKAWA, YASUHIRO IKABATA, JUNJI SEINO,
          YUYA NAKAJIMA, HIROMI NAKAI
     NANJING UNIVERSITY: SHUHUA LI
     UNIVERSITY OF NEBRASKA:
          PEIFENG SU, DEJUN SI, NANDUN THELLAMUREGE, YALI WANG, HUI LI
     UNIVERSITY OF ZURICH: ROBERTO PEVERATI, KIM BALDRIDGE
     N. COPERNICUS UNIVERSITY AND JACKSON STATE UNIVERSITY:
          MARIA BARYSZ
     UNIVERSITY OF COPENHAGEN: Jimmy Kromann, CASPER STEINMANN
     TOKYO INSTITUTE OF TECHNOLOGY: HIROYA NAKATA
     NAGOYA UNIVERSITY: YOSHIO NISHIMOTO, STEPHAN IRLE
     MOSCOW STATE UNIVERSITY: VLADIMIR MIRONOV


 PARALLEL VERSION RUNNING ON       16 PROCESSORS IN        1 NODES.

 EXECUTION OF GAMESS BEGUN Mon May 27 15:07:33 2024

            ECHO OF THE FIRST FEW INPUT CARDS -
 INPUT CARD> !############################################################################# 
 INPUT CARD> !                   D_3h RHF GEOMETRY OPTIMIZATION AND HESSIAN TEMPLATE        
 INPUT CARD> ! ---------------------------------------------------------------------------  
 INPUT CARD> ! Replace the symmetry-correct coordinates, should only be two atoms.          
 INPUT CARD> ! The hydrogen or fluorine should have only one non-zero x,y,z coordinate.     
 INPUT CARD> !                                                                              
 INPUT CARD> ! Basis set?   gbasis=ccd for 2nd row,                                         
 INPUT CARD> !                         cct 3rd/4th,                                         
 INPUT CARD> !                   SPKrTZP for heavy,                                         
 INPUT CARD> !                   SPKrTZC beyond 4th                                         
 INPUT CARD> !                                                                              
 INPUT CARD> !############################################################################# 
 INPUT CARD> $system kdiag=3 mwords=500 memddi=3000 parall=.t. $end                         
 INPUT CARD> $contrl runtyp=energy ispher=1 $end                                            
 INPUT CARD> $contrl icut=9 itol=20 inttyp=rysquad qmttol=1.0d-05 nosym=1 $end              
 INPUT CARD> $contrl scftyp=mcscf  mult=3 maxit=200 icharg=0 mplevl=2 $end                  
 INPUT CARD> $scf    npunch=2 conv=1.0d-06 dirscf=.t. $end                                  
 INPUT CARD> $force  method=seminum $end                                                    
 INPUT CARD> $trans  dirtrf=.t. $end                                                        
 INPUT CARD> $statpt hssend=.t. $end                                                        
 INPUT CARD> $basis  gbasis=SPKrTZP $end                                                    
 INPUT CARD> !############################################################################# 
 INPUT CARD> !                                                                              
 INPUT CARD> !                       TURN ON THIS SECTION IF HEAVY ATOM                     
 INPUT CARD> !                                                                              
 INPUT CARD> !############################################################################# 
 INPUT CARD> !                                                                              
 INPUT CARD> $contrl relwfn=LUT-IOTC $end                                                   
 INPUT CARD> $scf  diis=.t. soscf=.f. ethrsh=10.0 $end                                      
 INPUT CARD> -guess iorder(43)=44 iorder(44)=43 $end                                        
 INPUT CARD> $gmcpt nsolut=100 $end                                                         
 INPUT CARD> !                                                                              
 INPUT CARD> !############################################################################# 
 INPUT CARD> !                                                                              
 INPUT CARD> ! TURN ON THIS SECTION IF GMCPT, CHANGE runtyp=energy, scftyp=mcscf, change nos
 INPUT CARD> !                                                                              
 INPUT CARD> !############################################################################# 
 INPUT CARD> $guess  guess=moread norb=369 purify=.t. norder=1 $end                         
 INPUT CARD> $mcscf  cistep=gmcci fullnr=.t. finci=mos                                      
 INPUT CARD>         acurcy=1.d-5 maxit=200 $end                                            
 INPUT CARD> $mrmp   mrpt=gmcpt rdvecs=.f. $end                                             
 INPUT CARD> $gmcpt  nmofzc=19 nmodoc=24 nmoact=8 nelact=10 stsym(1)=A                      
 INPUT CARD>         reftyp=ormas nspace=1 mstart(1)=44 mine(1)=10 maxe(1)=10               
 INPUT CARD>         kstate(1)=1,1,1,1,1,1,1,1,1,1,1,1,1,1,1,1,1                            
 INPUT CARD>         wstate(1)=3,1,1,1,1,1,1,1,1,1,1,1,1,3,3,3,3                            
 INPUT CARD>         iwgt=0 thrwgt=-1.0 krot=.f. kszdoe=.f. knospn=.t.                      
 INPUT CARD>         thrde=-1.0 edshft=0.02 maxbas=8000 $end                                
 INPUT CARD> $transt $end                                                                   
 INPUT CARD> !############################################################################# 
 INPUT CARD> !                                                                              
  500000000 WORDS OF MEMORY AVAILABLE

     $BASIS REQUESTS READING THE "SPKRTZP " BASIS SET FROM AN EXTERNAL FILE


     RUN TITLE
     ---------
  FeCO diabatization                                                             

 THE POINT GROUP OF THE MOLECULE IS C1      
 THE ORDER OF THE PRINCIPAL AXIS IS     0

 THE EXTERNAL BASIS SET FILE BEING READ IS
     "/home/bjb2chen/LOCAL/gamess.mrsftddft.fmo.180731/auxdata/BASES/SPKRTZP"

 ATOM      ATOMIC                      COORDINATES (BOHR)
           CHARGE         X                   Y                   Z
 FE         26.0    -0.0000004925        0.0000000000       -0.0000000401
 C           6.0    -1.6615003188        2.8778047435        0.0000000948
 C           6.0    -1.6615003819       -2.8778047076        0.0000000803
 C           6.0     3.3230049148       -0.0000000377       -0.0000005265
 O           8.0    -2.7496321716        4.7625021458       -0.0000000328
 O           8.0    -2.7496321735       -4.7625021439       -0.0000000268
 O           8.0     5.4992672232       -0.0000000024        0.0000002225
 C           6.0    -0.0000008865        0.0000000061       -3.1689531616
 C           6.0    -0.0000005630       -0.0000000073        3.1689532598
 O           8.0     0.0000001921       -0.0000000049       -5.3704652120
 O           8.0     0.0000000632        0.0000000036        5.3704652932

          INTERNUCLEAR DISTANCES (ANGS.)
          ------------------------------

                1 FE         2 C          3 C          4 C          5 O     

   1 FE      0.0000000    1.7584570 *  1.7584570 *  1.7584589 *  2.9100852 *
   2 C       1.7584570 *  0.0000000    3.0457376    3.0457382    1.1516282 *
   3 C       1.7584570 *  3.0457376    0.0000000    3.0457382    4.0838745  
   4 C       1.7584589 *  3.0457382    3.0457382    0.0000000    4.0838754  
   5 O       2.9100852 *  1.1516282 *  4.0838745    4.0838754    0.0000000  
   6 O       2.9100852 *  4.0838745    1.1516282 *  4.0838754    5.0404156  
   7 O       2.9100874 *  4.0838756    4.0838756    1.1516285 *  5.0404173  
   8 C       1.6769379 *  2.4298748 *  2.4298748 *  2.4298762 *  3.3586777  
   9 C       1.6769380 *  2.4298749 *  2.4298749 *  2.4298765 *  3.3586779  
  10 O       2.8419280 *  3.3419645    3.3419645    3.3419649    4.0675732  
  11 O       2.8419281 *  3.3419644    3.3419645    3.3419655    4.0675732  

                6 O          7 O          8 C          9 C         10 O     

   1 FE      2.9100852 *  2.9100874 *  1.6769379 *  1.6769380 *  2.8419280 *
   2 C       4.0838745    4.0838756    2.4298748 *  2.4298749 *  3.3419645  
   3 C       1.1516282 *  4.0838756    2.4298748 *  2.4298749 *  3.3419645  
   4 C       4.0838754    1.1516285 *  2.4298762 *  2.4298765 *  3.3419649  
   5 O       5.0404156    5.0404173    3.3586777    3.3586779    4.0675732  
   6 O       0.0000000    5.0404173    3.3586777    3.3586779    4.0675732  
   7 O       5.0404173    0.0000000    3.3586799    3.3586797    4.0675744  
   8 C       3.3586777    3.3586799    0.0000000    3.3538759    1.1649901 *
   9 C       3.3586779    3.3586797    3.3538759    0.0000000    4.5188660  
  10 O       4.0675732    4.0675744    1.1649901 *  4.5188660    0.0000000  
  11 O       4.0675732    4.0675744    4.5188660    1.1649901 *  5.6838561  

               11 O     

   1 FE      2.8419281 *
   2 C       3.3419644  
   3 C       3.3419645  
   4 C       3.3419655  
   5 O       4.0675732  
   6 O       4.0675732  
   7 O       4.0675744  
   8 C       4.5188660  
   9 C       1.1649901 *
  10 O       5.6838561  
  11 O       0.0000000  

  * ... LESS THAN  3.000


     ATOMIC BASIS SET
     ----------------
 THE CONTRACTED PRIMITIVE FUNCTIONS HAVE BEEN UNNORMALIZED
 THE CONTRACTED BASIS FUNCTIONS ARE NOW NORMALIZED TO UNITY

  SHELL TYPE  PRIMITIVE        EXPONENT          CONTRACTION COEFFICIENT(S)

 FE        

      1   S       1       1100791.5305010    0.000473999976
      1   S       2        111958.3587060    0.002184999889
      1   S       3         19185.3576710    0.008689999559
      1   S       4          4445.3037100    0.032685998341
      1   S       5          1266.9965100    0.110141994410
      1   S       6           416.6310290    0.284031985586
      1   S       7           150.8643160    0.454264876947
      1   S       8            56.3399190    0.263064986650

      2   S       9           359.6946140   -0.022463999939
      2   S      10           108.1698330   -0.110348999698
      2   S      11            16.2239570    0.581708898408
      2   S      12             6.5680420    0.504839898618

      3   S      13            10.7418790   -0.362092191734
      3   S      14             1.7503840    1.164823573408

      4   S      15             2.5115960    1.000000000000

      5   S      16             0.7053330    1.000000000000

      6   S      17             0.3621190    1.000000000000

      7   S      18             0.1098870    1.000000000000

      8   S      19             0.0389760    1.000000000000

      9   P      20          3763.5373930    0.001033999945
      9   P      21           777.6255800    0.008099999572
      9   P      22           235.1625800    0.042150997771
      9   P      23            85.2386240    0.150979992017
      9   P      24            34.2178420    0.344345981793
      9   P      25            14.4530580    0.445691976434
      9   P      26             6.0108430    0.197984989532

     10   P      27            29.2356570   -0.050671998602
     10   P      28             3.8658850    1.015612071978

     11   P      29             1.5321320    1.000000000000

     12   P      30             0.6880240    1.000000000000

     13   P      31             0.3377060    1.000000000000

     14   P      32             0.1058510    1.000000000000

     15   D      33           153.1499290    0.002483999928
     15   D      34            39.2185330    0.024814999278
     15   D      35            13.1241220    0.112497096729
     15   D      36             4.9420130    0.294331191441
     15   D      37             1.9182510    0.436439287309
     15   D      38             0.7263080    0.400155288364

     16   D      39             1.2013780    1.000000000000

     17   D      40             0.4134800    1.000000000000

     18   D      41             0.2769570    0.803321387841
     18   D      42             0.1024240    0.267279095955

     19   F      43             7.1173700    0.248360909500
     19   F      44             2.0161170    0.867482733183

     20   F      45             0.5734880    1.000000000000

     21   G      46             3.1098950    0.428615975933
     21   G      47             0.8477510    0.770538956734

 C         

     22   S      48          2806.9439975    0.002023800059
     22   S      49           421.5775504    0.015441100454
     22   S      50            95.8957402    0.075177402208
     22   S      51            26.9445497    0.249027707314
     22   S      52             8.5713784    0.482075214159
     22   S      53             2.8716364    0.326878109601

     23   S      54             4.9998841   -0.210680004154
     23   S      55             0.5327613    1.077681121247

     24   S      56             0.2075124    1.000000000000

     25   S      57             0.0868337    1.000000000000

     26   P      58            18.6818848    0.039471499719
     26   P      59             4.1250373    0.244388698258
     26   P      60             1.1979790    0.815218894188

     27   P      61             0.3821592    1.000000000000

     28   P      62             0.1206886    1.000000000000

     29   D      63             3.0148490    0.111983997300
     29   D      64             0.8820640    0.935464277443

     30   D      65             0.2854600    1.000000000000

     31   F      66             1.2468250    0.439684998371
     31   F      67             0.4390430    0.686338997457

 C         

     32   S      68          2806.9439975    0.002023800059
     32   S      69           421.5775504    0.015441100454
     32   S      70            95.8957402    0.075177402208
     32   S      71            26.9445497    0.249027707314
     32   S      72             8.5713784    0.482075214159
     32   S      73             2.8716364    0.326878109601

     33   S      74             4.9998841   -0.210680004154
     33   S      75             0.5327613    1.077681121247

     34   S      76             0.2075124    1.000000000000

     35   S      77             0.0868337    1.000000000000

     36   P      78            18.6818848    0.039471499719
     36   P      79             4.1250373    0.244388698258
     36   P      80             1.1979790    0.815218894188

     37   P      81             0.3821592    1.000000000000

     38   P      82             0.1206886    1.000000000000

     39   D      83             3.0148490    0.111983997300
     39   D      84             0.8820640    0.935464277443

     40   D      85             0.2854600    1.000000000000

     41   F      86             1.2468250    0.439684998371
     41   F      87             0.4390430    0.686338997457

 C         

     42   S      88          2806.9439975    0.002023800059
     42   S      89           421.5775504    0.015441100454
     42   S      90            95.8957402    0.075177402208
     42   S      91            26.9445497    0.249027707314
     42   S      92             8.5713784    0.482075214159
     42   S      93             2.8716364    0.326878109601

     43   S      94             4.9998841   -0.210680004154
     43   S      95             0.5327613    1.077681121247

     44   S      96             0.2075124    1.000000000000

     45   S      97             0.0868337    1.000000000000

     46   P      98            18.6818848    0.039471499719
     46   P      99             4.1250373    0.244388698258
     46   P     100             1.1979790    0.815218894188

     47   P     101             0.3821592    1.000000000000

     48   P     102             0.1206886    1.000000000000

     49   D     103             3.0148490    0.111983997300
     49   D     104             0.8820640    0.935464277443

     50   D     105             0.2854600    1.000000000000

     51   F     106             1.2468250    0.439684998371
     51   F     107             0.4390430    0.686338997457

 O         

     52   S     108          5077.7107079    0.002005200049
     52   S     109           762.6032479    0.015311300372
     52   S     110           173.4747916    0.074816301816
     52   S     111            48.8026730    0.249940906066
     52   S     112            15.6087813    0.483164411726
     52   S     113             5.2562810    0.324034307864

     53   S     114             9.8167720   -0.213008798624
     53   S     115             1.0626144    1.079351093025

     54   S     116             0.4112889    1.000000000000

     55   S     117             0.1672821    1.000000000000

     56   P     118            34.4309698    0.041201500385
     56   P     119             7.7428211    0.257878902408
     56   P     120             2.2788395    0.802283507490

     57   P     121             0.7151603    1.000000000000

     58   P     122             0.2137722    1.000000000000

     59   D     123             5.9603300    0.136289097514
     59   D     124             1.7648530    0.919489483226

     60   D     125             0.5756600    1.000000000000

     61   F     126             2.4143370    0.424090301385
     61   F     127             0.7676600    0.719405502349

 O         

     62   S     128          5077.7107079    0.002005200049
     62   S     129           762.6032479    0.015311300372
     62   S     130           173.4747916    0.074816301816
     62   S     131            48.8026730    0.249940906066
     62   S     132            15.6087813    0.483164411726
     62   S     133             5.2562810    0.324034307864

     63   S     134             9.8167720   -0.213008798624
     63   S     135             1.0626144    1.079351093025

     64   S     136             0.4112889    1.000000000000

     65   S     137             0.1672821    1.000000000000

     66   P     138            34.4309698    0.041201500385
     66   P     139             7.7428211    0.257878902408
     66   P     140             2.2788395    0.802283507490

     67   P     141             0.7151603    1.000000000000

     68   P     142             0.2137722    1.000000000000

     69   D     143             5.9603300    0.136289097514
     69   D     144             1.7648530    0.919489483226

     70   D     145             0.5756600    1.000000000000

     71   F     146             2.4143370    0.424090301385
     71   F     147             0.7676600    0.719405502349

 O         

     72   S     148          5077.7107079    0.002005200049
     72   S     149           762.6032479    0.015311300372
     72   S     150           173.4747916    0.074816301816
     72   S     151            48.8026730    0.249940906066
     72   S     152            15.6087813    0.483164411726
     72   S     153             5.2562810    0.324034307864

     73   S     154             9.8167720   -0.213008798624
     73   S     155             1.0626144    1.079351093025

     74   S     156             0.4112889    1.000000000000

     75   S     157             0.1672821    1.000000000000

     76   P     158            34.4309698    0.041201500385
     76   P     159             7.7428211    0.257878902408
     76   P     160             2.2788395    0.802283507490

     77   P     161             0.7151603    1.000000000000

     78   P     162             0.2137722    1.000000000000

     79   D     163             5.9603300    0.136289097514
     79   D     164             1.7648530    0.919489483226

     80   D     165             0.5756600    1.000000000000

     81   F     166             2.4143370    0.424090301385
     81   F     167             0.7676600    0.719405502349

 C         

     82   S     168          2806.9439975    0.002023800059
     82   S     169           421.5775504    0.015441100454
     82   S     170            95.8957402    0.075177402208
     82   S     171            26.9445497    0.249027707314
     82   S     172             8.5713784    0.482075214159
     82   S     173             2.8716364    0.326878109601

     83   S     174             4.9998841   -0.210680004154
     83   S     175             0.5327613    1.077681121247

     84   S     176             0.2075124    1.000000000000

     85   S     177             0.0868337    1.000000000000

     86   P     178            18.6818848    0.039471499719
     86   P     179             4.1250373    0.244388698258
     86   P     180             1.1979790    0.815218894188

     87   P     181             0.3821592    1.000000000000

     88   P     182             0.1206886    1.000000000000

     89   D     183             3.0148490    0.111983997300
     89   D     184             0.8820640    0.935464277443

     90   D     185             0.2854600    1.000000000000

     91   F     186             1.2468250    0.439684998371
     91   F     187             0.4390430    0.686338997457

 C         

     92   S     188          2806.9439975    0.002023800059
     92   S     189           421.5775504    0.015441100454
     92   S     190            95.8957402    0.075177402208
     92   S     191            26.9445497    0.249027707314
     92   S     192             8.5713784    0.482075214159
     92   S     193             2.8716364    0.326878109601

     93   S     194             4.9998841   -0.210680004154
     93   S     195             0.5327613    1.077681121247

     94   S     196             0.2075124    1.000000000000

     95   S     197             0.0868337    1.000000000000

     96   P     198            18.6818848    0.039471499719
     96   P     199             4.1250373    0.244388698258
     96   P     200             1.1979790    0.815218894188

     97   P     201             0.3821592    1.000000000000

     98   P     202             0.1206886    1.000000000000

     99   D     203             3.0148490    0.111983997300
     99   D     204             0.8820640    0.935464277443

    100   D     205             0.2854600    1.000000000000

    101   F     206             1.2468250    0.439684998371
    101   F     207             0.4390430    0.686338997457

 O         

    102   S     208          5077.7107079    0.002005200049
    102   S     209           762.6032479    0.015311300372
    102   S     210           173.4747916    0.074816301816
    102   S     211            48.8026730    0.249940906066
    102   S     212            15.6087813    0.483164411726
    102   S     213             5.2562810    0.324034307864

    103   S     214             9.8167720   -0.213008798624
    103   S     215             1.0626144    1.079351093025

    104   S     216             0.4112889    1.000000000000

    105   S     217             0.1672821    1.000000000000

    106   P     218            34.4309698    0.041201500385
    106   P     219             7.7428211    0.257878902408
    106   P     220             2.2788395    0.802283507490

    107   P     221             0.7151603    1.000000000000

    108   P     222             0.2137722    1.000000000000

    109   D     223             5.9603300    0.136289097514
    109   D     224             1.7648530    0.919489483226

    110   D     225             0.5756600    1.000000000000

    111   F     226             2.4143370    0.424090301385
    111   F     227             0.7676600    0.719405502349

 O         

    112   S     228          5077.7107079    0.002005200049
    112   S     229           762.6032479    0.015311300372
    112   S     230           173.4747916    0.074816301816
    112   S     231            48.8026730    0.249940906066
    112   S     232            15.6087813    0.483164411726
    112   S     233             5.2562810    0.324034307864

    113   S     234             9.8167720   -0.213008798624
    113   S     235             1.0626144    1.079351093025

    114   S     236             0.4112889    1.000000000000

    115   S     237             0.1672821    1.000000000000

    116   P     238            34.4309698    0.041201500385
    116   P     239             7.7428211    0.257878902408
    116   P     240             2.2788395    0.802283507490

    117   P     241             0.7151603    1.000000000000

    118   P     242             0.2137722    1.000000000000

    119   D     243             5.9603300    0.136289097514
    119   D     244             1.7648530    0.919489483226

    120   D     245             0.5756600    1.000000000000

    121   F     246             2.4143370    0.424090301385
    121   F     247             0.7676600    0.719405502349

 TOTAL NUMBER OF BASIS SET SHELLS             =  121
 NUMBER OF CARTESIAN GAUSSIAN BASIS FUNCTIONS =  435
 NOTE: THIS RUN WILL RESTRICT THE MO VARIATION SPACE TO SPHERICAL HARMONICS.
 THE NUMBER OF ORBITALS KEPT IN THE VARIATIONAL SPACE WILL BE PRINTED LATER.
 NUMBER OF ELECTRONS                          =   96
 CHARGE OF MOLECULE                           =    0
 SPIN MULTIPLICITY                            =    3
 NUMBER OF OCCUPIED ORBITALS (ALPHA)          =   49
 NUMBER OF OCCUPIED ORBITALS (BETA )          =   47
 TOTAL NUMBER OF ATOMS                        =   11
 THE NUCLEAR REPULSION ENERGY IS      827.0938023747

     ---------------------------------
     RELATIVISTIC WAVEFUNCTION OPTIONS
     ---------------------------------
     METHOD=LUT-IOTC NORDER= 2       NESOC=  0      MODEQR=      1
     NRATOM=  0      QMTTOL= 1.000E-10      QRTOL= 1.000E-10
     CLIGHT=137.03598950     TAU= 3.500E+00

 INTERNAL BASIS SET UNCONTRACTION FOR RESC/DK/IOTC/LUT-IOTC:
   247 SHELLS AND    808 AOS ARE CONSTRUCTED, COMPARED TO
   121 SHELLS AND    435 AOS IN THE CONTRACTED BASIS SET


     $CONTRL OPTIONS
     ---------------
 SCFTYP=MCSCF        RUNTYP=ENERGY       EXETYP=RUN     
 MPLEVL=       2     CITYP =NONE         CCTYP =NONE         VBTYP =NONE    
 DFTTYP=NONE         TDDFT =NONE    
 MULT  =       3     ICHARG=       0     NZVAR =       0     COORD =UNIQUE  
 PP    =NONE         RELWFN=LUT-IOTC     LOCAL =NONE         NUMGRD=       F
 ISPHER=       1     NOSYM =       1     MAXIT =     200     UNITS =ANGS    
 PLTORB=       F     MOLPLT=       F     AIMPAC=       F     FRIEND=        
 NPRINT=       7     IREST =       0     GEOM  =INPUT   
 NORMF =       0     NORMP =       0     ITOL  =      20     ICUT  =       9
 INTTYP=RYSQUAD      GRDTYP=BEST         QMTTOL= 1.0E-05

     $SYSTEM OPTIONS
     ---------------
  REPLICATED MEMORY=   500000000 WORDS (ON EVERY NODE).
 DISTRIBUTED MEMDDI=        3000 MILLION WORDS IN AGGREGATE,
 MEMDDI DISTRIBUTED OVER  16 PROCESSORS IS   187500000 WORDS/PROCESSOR.
 TOTAL MEMORY REQUESTED ON EACH PROCESSOR=   687500000 WORDS.
 TIMLIM=      525600.00 MINUTES, OR     365.0 DAYS.
 PARALL= T  BALTYP=  DLB     KDIAG=    3  COREFL= F
 MXSEQ2=     300 MXSEQ3=     150  mem10=         0

          ----------------
          PROPERTIES INPUT
          ----------------

     MOMENTS            FIELD           POTENTIAL          DENSITY
 IEMOM =       1   IEFLD =       0   IEPOT =       0   IEDEN =       0
 WHERE =COMASS     WHERE =NUCLEI     WHERE =NUCLEI     WHERE =NUCLEI  
 OUTPUT=BOTH       OUTPUT=BOTH       OUTPUT=BOTH       OUTPUT=BOTH    
 IEMINT=       0   IEFINT=       0                     IEDINT=       0
                                                       MORB  =       0

     -------------------------------
     INTEGRAL TRANSFORMATION OPTIONS
     -------------------------------
     NWORD  =            0
     CUTOFF = 1.0E-09     MPTRAN =       0
     DIRTRF =       T     AOINTS =DUP     

          ----------------------
          MCSCF INPUT PARAMETERS
          ----------------------
 CONVERGER SELECTION: FOCAS = F  SOSCF = F  FULLNR = T  QUD = F  JACOBI = F
 SECULAR EQUATION METHOD CISTEP = GMCCI   
 --- GENERAL INPUT OPTIONS:
 MAXIT =     200  MICIT =       1  ACURCY= 1.000E-05
 DAMP  =   0.000  CANONC=       T  ENGTOL= 1.000E-10
 EKT   =       F  NPUNCH=       2  NWORD =         0
 REGENERATE CI AFTER CONVERGENCE = NONE    
 DIABATIZATION AFTER CONVERGENCE =        F
 --- INPUT FOR FULLNR CONVERGER:
 METHOD=DM2       FORS  =       F  DROPC =       T
 LINSER=       F  FCORE =       F  NORB  =     435

          ----------------------
          INTEGRAL INPUT OPTIONS
          ----------------------
 NOPK  =       1 NORDER=       0 SCHWRZ=       T

 ------------------------------------------
 MULTIREFERENCE PERTURBATION THEORY CONTROL
 ------------------------------------------
 MRPT=GMCPT    READ CONVERGED MCSCF VECTORS= F


     ------------------------------------------
     THE POINT GROUP IS C1 , NAXIS= 1, ORDER= 1
     ------------------------------------------

 -- VARIATIONAL SPACE WILL BE RESTRICTED TO PURE SPHERICAL HARMONICS ONLY --
 AFTER EXCLUDING CONTAMINANT COMBINATIONS FROM THE CARTESIAN GAUSSIAN BASIS
 SET, THE NUMBER OF SPHERICAL HARMONICS KEPT IN THE VARIATION SPACE IS  369

     DIMENSIONS OF THE SYMMETRY SUBSPACES ARE
 A   =  369

 ..... DONE SETTING UP THE RUN .....
 CPU     0: STEP CPU TIME=     0.74 TOTAL CPU TIME=          0.7 (      0.0 MIN)
 TOTAL WALL CLOCK TIME=          0.9 SECONDS, CPU UTILIZATION IS    79.57%

          ********************
          1 ELECTRON INTEGRALS
          ********************
 TIME TO DO ORDINARY INTEGRALS=      0.01

 ======================================================================
      INFINITE-ORDER TWO-COMPONENT (IOTC) ONE-ELECTRON HAMILTONIAN
      WITH LOCAL UNITARY TRANSFORMATION (LUT) SCHEME
                                            CODED BY YUYA NAKAJIMA
             J. SEINO, H. NAKAI, J. CHEM. PHYS. 136, 244102 (2012)
             J. SEINO, H. NAKAI, J. CHEM. PHYS. 137, 144101 (2012)
             J. SEINO, H. NAKAI, J. CHEM. PHYS. 139, 034109 (2013)
        J. SEINO, H. NAKAI, INT. J. QUANTUM. CHEM. 115, 253 (2015)
 ======================================================================

 LUT-IOTC TRANSFORMATION FOR ATOM:    1
 THE SMALLEST EIGENVALUE OF THE OVERLAP MATRIX IS   5.23E-12
 THERE ARE     2 OVERLAP MATRIX EIGENVALUES LESS THAN   1.00E-10
 THE NUMBER OF LINEARLY INDEPENDENT ORBITALS KEPT IS   176

 LUT-IOTC TRANSFORMATION FOR ATOM:    2
 LUT-IOTC TRANSFORMATION FOR ATOM:    3
 LUT-IOTC TRANSFORMATION FOR ATOM:    4
 LUT-IOTC TRANSFORMATION FOR ATOM:    5
 LUT-IOTC TRANSFORMATION FOR ATOM:    6
 LUT-IOTC TRANSFORMATION FOR ATOM:    7
 LUT-IOTC TRANSFORMATION FOR ATOM:    8
 LUT-IOTC TRANSFORMATION FOR ATOM:    9
 LUT-IOTC TRANSFORMATION FOR ATOM:   10
 LUT-IOTC TRANSFORMATION FOR ATOM:   11

     -------------------------------------
     LUT-IOTC TRANSFORMATION FOR ATOM-PAIR
     -------------------------------------

                1 FE         2 C          3 C          4 C          5 O     

   1 FE      0.0000000    1.7584570 *  1.7584570 *  1.7584589 *  2.9100852 *
   2 C       1.7584570 *  0.0000000    3.0457376 *  3.0457382 *  1.1516282 *
   3 C       1.7584570 *  3.0457376 *  0.0000000    3.0457382 *  4.0838745  
   4 C       1.7584589 *  3.0457382 *  3.0457382 *  0.0000000    4.0838754  
   5 O       2.9100852 *  1.1516282 *  4.0838745    4.0838754    0.0000000  
   6 O       2.9100852 *  4.0838745    1.1516282 *  4.0838754    5.0404156  
   7 O       2.9100874 *  4.0838756    4.0838756    1.1516285 *  5.0404173  
   8 C       1.6769379 *  2.4298748 *  2.4298748 *  2.4298762 *  3.3586777 *
   9 C       1.6769380 *  2.4298749 *  2.4298749 *  2.4298765 *  3.3586779 *
  10 O       2.8419280 *  3.3419645 *  3.3419645 *  3.3419649 *  4.0675732  
  11 O       2.8419281 *  3.3419644 *  3.3419645 *  3.3419655 *  4.0675732  

                6 O          7 O          8 C          9 C         10 O     

   1 FE      2.9100852 *  2.9100874 *  1.6769379 *  1.6769380 *  2.8419280 *
   2 C       4.0838745    4.0838756    2.4298748 *  2.4298749 *  3.3419645 *
   3 C       1.1516282 *  4.0838756    2.4298748 *  2.4298749 *  3.3419645 *
   4 C       4.0838754    1.1516285 *  2.4298762 *  2.4298765 *  3.3419649 *
   5 O       5.0404156    5.0404173    3.3586777 *  3.3586779 *  4.0675732  
   6 O       0.0000000    5.0404173    3.3586777 *  3.3586779 *  4.0675732  
   7 O       5.0404173    0.0000000    3.3586799 *  3.3586797 *  4.0675744  
   8 C       3.3586777 *  3.3586799 *  0.0000000    3.3538759 *  1.1649901 *
   9 C       3.3586779 *  3.3586797 *  3.3538759 *  0.0000000    4.5188660  
  10 O       4.0675732    4.0675744    1.1649901 *  4.5188660    0.0000000  
  11 O       4.0675732    4.0675744    4.5188660    1.1649901 *  5.6838561  

               11 O     

   1 FE      2.8419281 *
   2 C       3.3419644 *
   3 C       3.3419645 *
   4 C       3.3419655 *
   5 O       4.0675732  
   6 O       4.0675732  
   7 O       4.0675744  
   8 C       4.5188660  
   9 C       1.1649901 *
  10 O       5.6838561  
  11 O       0.0000000  

  * ... TRANSFORMED ATOM PAIR (LESS THAN   3.500 ANGS.)

 TIME TO DO  RELATIVISTIC INTS=      0.53
 TIME TO DO   DIPOLE INTEGRALS=      0.01
 ...... END OF ONE-ELECTRON INTEGRALS ......
 CPU     0: STEP CPU TIME=     0.55 TOTAL CPU TIME=          1.3 (      0.0 MIN)
 TOTAL WALL CLOCK TIME=          4.3 SECONDS, CPU UTILIZATION IS    29.79%

          -------------
          GUESS OPTIONS
          -------------
          GUESS =MOREAD            NORB  =     369          NORDER=       1
          MIX   =       F          PRTMO =       F          PUNMO =       F
          TOLZ  = 1.0E-08          TOLE  = 1.0E-05
          SYMDEN=       F          PURIFY=       T

 INITIAL GUESS ORBITALS GENERATED BY MOREAD   ROUTINE.

 STATISTICS FOR GENERATION OF SYMMETRY ORBITAL -Q- MATRIX
 NUMBER OF CARTESIAN ATOMIC ORBITALS=        435
 NUMBER OF SPHERICAL CONTAMINANTS DROPPED=    66
 NUMBER OF LINEARLY DEPENDENT MOS DROPPED=     0
 TOTAL NUMBER OF MOS IN VARIATION SPACE=     369
 ORBITAL PURIFICATION WILL OCCUR

 SYMMETRIES FOR INITIAL GUESS ORBITALS FOLLOW.   BOTH SET(S).
    49 ORBITALS ARE OCCUPIED (   19 CORE ORBITALS).
     1=A        2=A        3=A        4=A        5=A        6=A        7=A   
     8=A        9=A       10=A       11=A       12=A       13=A       14=A   
    15=A       16=A       17=A       18=A       19=A       20=A       21=A   
    22=A       23=A       24=A       25=A       26=A       27=A       28=A   
    29=A       30=A       31=A       32=A       33=A       34=A       35=A   
    36=A       37=A       38=A       39=A       40=A       41=A       42=A   
    43=A       44=A       45=A       46=A       47=A       48=A       49=A   
    50=A       51=A       52=A       53=A       54=A       55=A       56=A   
    57=A       58=A       59=A       60=A       61=A       62=A       63=A   
    64=A       65=A       66=A       67=A       68=A       69=A       70=A   
    71=A       72=A       73=A       74=A       75=A       76=A       77=A   
    78=A       79=A       80=A       81=A       82=A       83=A       84=A   
    85=A       86=A       87=A       88=A       89=A       90=A       91=A   
    92=A       93=A       94=A       95=A       96=A       97=A       98=A   
    99=A      100=A      101=A      102=A      103=A      104=A      105=A   
   106=A      107=A      108=A      109=A      110=A      111=A      112=A   
   113=A      114=A      115=A      116=A      117=A      118=A      119=A   
   120=A      121=A      122=A      123=A      124=A      125=A      126=A   
   127=A      128=A      129=A      130=A      131=A      132=A      133=A   
   134=A      135=A      136=A      137=A      138=A      139=A      140=A   
   141=A      142=A      143=A      144=A      145=A      146=A      147=A   
   148=A      149=A      150=A      151=A      152=A      153=A      154=A   
   155=A      156=A      157=A      158=A      159=A      160=A      161=A   
   162=A      163=A      164=A      165=A      166=A      167=A      168=A   
   169=A      170=A      171=A      172=A      173=A      174=A      175=A   
   176=A      177=A      178=A      179=A      180=A      181=A      182=A   
   183=A      184=A      185=A      186=A      187=A      188=A      189=A   
   190=A      191=A      192=A      193=A      194=A      195=A      196=A   
   197=A      198=A      199=A      200=A      201=A      202=A      203=A   
   204=A      205=A      206=A      207=A      208=A      209=A      210=A   
   211=A      212=A      213=A      214=A      215=A      216=A      217=A   
   218=A      219=A      220=A      221=A      222=A      223=A      224=A   
   225=A      226=A      227=A      228=A      229=A      230=A      231=A   
   232=A      233=A      234=A      235=A      236=A      237=A      238=A   
   239=A      240=A      241=A      242=A      243=A      244=A      245=A   
   246=A      247=A      248=A      249=A      250=A      251=A      252=A   
   253=A      254=A      255=A      256=A      257=A      258=A      259=A   
   260=A      261=A      262=A      263=A      264=A      265=A      266=A   
   267=A      268=A      269=A      270=A      271=A      272=A      273=A   
   274=A      275=A      276=A      277=A      278=A      279=A      280=A   
   281=A      282=A      283=A      284=A      285=A      286=A      287=A   
   288=A      289=A      290=A      291=A      292=A      293=A      294=A   
   295=A      296=A      297=A      298=A      299=A      300=A      301=A   
   302=A      303=A      304=A      305=A      306=A      307=A      308=A   
   309=A      310=A      311=A      312=A      313=A      314=A      315=A   
   316=A      317=A      318=A      319=A      320=A      321=A      322=A   
   323=A      324=A      325=A      326=A      327=A      328=A      329=A   
   330=A      331=A      332=A      333=A      334=A      335=A      336=A   
   337=A      338=A      339=A      340=A      341=A      342=A      343=A   
   344=A      345=A      346=A      347=A      348=A      349=A      350=A   
   351=A      352=A      353=A      354=A      355=A      356=A      357=A   
   358=A      359=A      360=A      361=A      362=A      363=A      364=A   
   365=A      366=A      367=A      368=A      369=A   
 ...... END OF INITIAL ORBITAL SELECTION ......
 CPU     0: STEP CPU TIME=     4.36 TOTAL CPU TIME=          5.6 (      0.1 MIN)
 TOTAL WALL CLOCK TIME=         11.8 SECONDS, CPU UTILIZATION IS    47.80%

                    ----------------------
                    AO INTEGRAL TECHNOLOGY
                    ----------------------
     S,P,L SHELL ROTATED AXIS INTEGRALS, REPROGRAMMED BY
        KAZUYA ISHIMURA (IMS) AND JOSE SIERRA (SYNSTAR).
     S,P,D,L SHELL ROTATED AXIS INTEGRALS PROGRAMMED BY
        KAZUYA ISHIMURA (INSTITUTE FOR MOLECULAR SCIENCE).
     S,P,D,F,G SHELL TO TOTAL QUARTET ANGULAR MOMENTUM SUM 5,
        ERIC PROGRAM BY GRAHAM FLETCHER (ELORET AND NASA ADVANCED
        SUPERCOMPUTING DIVISION, AMES RESEARCH CENTER).
     S,P,D,F,G,L SHELL GENERAL RYS QUADRATURE PROGRAMMED BY
        MICHEL DUPUIS (PACIFIC NORTHWEST NATIONAL LABORATORY).

          --------------------
          2 ELECTRON INTEGRALS
          --------------------

 DIRECT SCF METHOD SKIPS INTEGRAL STORAGE ON DISK.
 DIRECT TRANSFORMATION SKIPS AO INTEGRAL STORAGE ON DISK.
  ...... END OF TWO-ELECTRON INTEGRALS .....
 STEP CPU TIME =     0.02 TOTAL CPU TIME =          5.7 (      0.1 MIN)
 TOTAL WALL CLOCK TIME=         12.3 SECONDS, CPU UTILIZATION IS    46.17%

          -----------------
          MCSCF CALCULATION
          -----------------

 ----- NUCLEAR ENERGY ----- =       827.0938023747

     -------------------------------------------------
     GMC-PT/GMC-QDPT or general MCSCF input parameters
     -------------------------------------------------
 # of frozen core orbs. =        19 ->         0
 # of doubly occ. orbs. =        24
 # of active      orbs. =         8
 # of virtual     orbs. =       318
 # of active electrons  =        10
 # of states in CI      =        17
 Highest state in CI    =        17
 kstate =  1 1 1 1 1 1 1 1 1 1 1 1 1 1 1 1 1
 avecoe =  0.111 0.037 0.037 0.037 0.037 0.037 0.037 0.037 0.037 0.037
           0.037 0.037 0.037 0.111 0.111 0.111 0.111
 State symmetry           = A           
 Assigned symmetry number = 1

 <<<Act. MO sym.: 11111111

 <<<Division of 1-ext.:  0 0 0 0 0 0 0 0 0 0 0 0 0 0 0 0
 <<<Division of 2-ext.:  0 1 2 3 4 5 6 7 8 9101112131415

 *** Reference space

 Reference type: ORMAS (= Occupation restricted multiple active space)
 # of orbitals          =  8
 # of minimum electrons = 10
 # of maximum electrons = 10
 State symmetry    =    1 (input)
 2*Sz              =    - (general)
 Spin multiplicity =    - (general)
 Dimension of reference space =      8008  (from      8008 walks)

 <<<Ionized spaces for Ref-CI:
      0:         8008 /   -1-0:        11440 /  0-1-0:         8008

 EVALUATING EXCHANGE INTEGRALS FOR DIRECT INTEGRAL TRANSFORMATION
 SCHWARZ INEQUALITY OVERHEAD:     90407 INTEGRALS, T=        0.01

     --------------------------------------------
     PARTIAL TWO ELECTRON INTEGRAL TRANSFORMATION
     --------------------------------------------

 NUMBER OF CORE MOLECULAR ORBITALS     =   43
 NUMBER OF OCCUPIED MOLECULAR ORBITALS =   51
 TOTAL NUMBER OF MOLECULAR ORBITALS    =  369
 TOTAL NUMBER OF ATOMIC ORBITALS       =  435
 THRESHOLD FOR KEEPING TRANSFORMED 2E- INTEGRALS = 1.000E-09

 -------------------------------     ------------------------------
 DISTRIBUTED DATA TRANSFORMATION     PROGRAM WRITTEN BY G. FLETCHER
 -------------------------------     ------------------------------

 THE DISTRIBUTED MEMORY REQUIRED FOR THIS STEP IS MEMDDI=       400 MWORDS
 CREATING DISTRIBUTED STORAGE FOR [VIR OCC|VIR OCC] INTEGRALS
 DDI: Creating Array [0] - 189225 x 1326 = 250912350 words.
 CREATING DISTRIBUTED STORAGE FOR [VIR OCC|OCC OCC] INTEGRALS
 DDI: Creating Array [1] - 318 x 67626 = 21505068 words.
 CREATING DISTRIBUTED STORAGE FOR [OCC OCC|OCC OCC] INTEGRALS
 DDI: Creating Array [2] - 1326 x 1326 = 1758276 words.
 CREATING DISTRIBUTED STORAGE FOR [VIR VIR|OCC OCC] INTEGRALS
 DDI: Creating Array [3] - 94830 x 1326 = 125744580 words.
 FOR   16 PROCESSORS, THE REPLICATED MEMORY NEEDED IS    11256063 WORDS.
 SCHWARZ INEQUALITY OVERHEAD:     90407 INTEGRALS, T=        0.01

      DIRECT 4-INDEX TRANSFORMATION 
      SCHWARZ INEQUALITY TEST SKIPPED   18131772 INTEGRAL BLOCKS
 ----- FROZEN CORE ENERGY =     -2635.1998369000
 ... END OF INTEGRAL TRANSFORMATION ...
 CPU     0: STEP CPU TIME=    82.66 TOTAL CPU TIME=         88.3 (      1.5 MIN)
 TOTAL WALL CLOCK TIME=         97.9 SECONDS, CPU UTILIZATION IS    90.25%

     --------------------------------     -----------------------------
     MCHF NEWTON-RAPHSON OPTIMIZATION     CODE WRITTEN BY MICHEL DUPUIS
     --------------------------------     -----------------------------
     PARALLEL VERSION WRITTEN BY G. FLETCHER (ELORET)
     NASA ADVANCED SUPERCOMPUTING DIVISION, AMES RESEARCH CENTER

 NUMBER OF INDEPENDENT ORBITAL ROTATION PARAMETERS =  7478
 ..... DONE SOLVING NEWTON-RAPHSON EQUATIONS .....
 CPU     0: STEP CPU TIME=   415.79 TOTAL CPU TIME=        504.1 (      8.4 MIN)
 TOTAL WALL CLOCK TIME=        965.5 SECONDS, CPU UTILIZATION IS    52.21%
 ..... DONE WITH NTN-RPH ORBITAL ROTATIONS ..... 
 CPU     0: STEP CPU TIME=     0.07 TOTAL CPU TIME=        504.2 (      8.4 MIN)
 TOTAL WALL CLOCK TIME=        966.0 SECONDS, CPU UTILIZATION IS    52.19%
 MAXIMUM MEMORY USED BY NTN-RPH CODE WAS   1992646 WORDS.

 ITER     TOTAL ENERGY      DEL(E)  LAGRANGIAN ASYMMETRY   SQCDF  MICIT   DAMP
   1    -1835.205909063 -0.205909063  0.001515  131    1 3.448E-05  1   0.0000
   2    -1835.205934866 -0.000025804  0.000133   54   46 1.682E-07  1   0.0000
   3    -1835.205934954 -0.000000088  0.000096   53   45 3.238E-08  1   0.0000
   4    -1835.205934991 -0.000000037  0.000073   53   45 1.128E-08  1   0.0000
   5    -1835.205935010 -0.000000019  0.000054   53   45 5.067E-09  1   0.0000
   6    -1835.205935020 -0.000000010  0.000040   53   45 2.471E-09  1   0.0000
   7    -1835.205935026 -0.000000006  0.000030   53   45 1.369E-09  1   0.0000
   8    -1835.205935029 -0.000000003  0.000022   53   45 7.435E-10  1   0.0000
   9    -1835.205935031 -0.000000002  0.000016   53   45 3.876E-10  1   0.0000
  10    -1835.205935031 -0.000000001  0.000012   53   45 2.160E-10  1   0.0000
  11    -1835.205935032 -0.000000000  0.000009   53   45 8.917E-11  1   0.0000

          --------------------
          LAGRANGIAN CONVERGED
          --------------------

 FINAL MCSCF ENERGY IS    -1835.2059350319 AFTER  11 ITERATIONS

 -MCCI- BASED ON OPTIMIZED ORBITALS
 ----------------------------------

 PLEASE NOTE: IF THE ACTIVE ORBITALS ARE CANONICALIZED BELOW,
 THE FOLLOWING CI EXPANSION COEFFICIENTS AND THE DENSITY DO NOT
 CORRESPOND TO THE PRINTED ORBITALS.  THE PRINTED EXPANSIONS MATCH
 THE ORBITALS USED DURING THE LAST ITERATION.  IF YOU WISH TO SEE
 CI EXPANSIONS BASED ON THE CANONICAL (OR NATURAL) ORBITALS, YOU
 MUST RUN A CI CALCULATION WITH THAT ORBITAL CHOICE READ IN $VEC.

 Averaged energy =   -1835.205935032

 State #    1  Energy =   -1835.391816181  S =  0.000

      Det      Coef    Occupancy (Ignoring core)
      ---      ----    --------- --------- -----
      231   -0.948378  1111100011111000
      267    0.061867  1110001111111000
      881    0.056957  0111110001111100
      882   -0.054772  1111001001111100
      898   -0.054772  1110100101111100
     1171   -0.054772  0111110011110010
     1172    0.121089  1111001011110010
     1188    0.077216  1110100111110010
     3338   -0.054772  0111110011101001
     3339    0.077216  1111001011101001
     3355    0.121089  1110100111101001
     5115    0.061867  1111100011100011

 State #    2  Energy =   -1835.207808218  S =  1.000

      Det      Coef    Occupancy (Ignoring core)
      ---      ----    --------- --------- -----
      175    0.871234  1111110010111000
      177    0.064457  1111011010111000
      184    0.068775  1110110110111000
      193   -0.052418  1110011110111000
      235    0.242310  1011110011111000
      792    0.073628  1111110000111100
      794    0.053013  1111011000111100
      801    0.053225  1110110100111100
      820   -0.242310  1111100010111100
     1112    0.120199  1111011010110010
     1119    0.076576  1110110110110010
     3279    0.076089  1111011010101001
     3286    0.119351  1110110110101001
     5059   -0.064725  1111110010100011

 State #    3  Energy =   -1835.207808218  S =  1.000

      Det      Coef    Occupancy (Ignoring core)
      ---      ----    --------- --------- -----
      175   -0.261966  1111110010111000
      235    0.443685  1011110011111000
      820   -0.443685  1111100010111100
      935   -0.643863  1011100011111100
      946   -0.054413  0011110011111100
     1179    0.061213  1011011011110010
     2036   -0.061213  1111001010110110
     2159   -0.088830  1011001011110110
     2182   -0.056232  1010100111110110
     3364    0.060781  1010110111101001
     4384   -0.060781  1110100110101101
     4477   -0.050826  1011100011101101
     4491   -0.056592  1011001011101101
     4514   -0.088203  1010100111101101

 State #    4  Energy =   -1835.207808218  S =  1.000

      Det      Coef    Occupancy (Ignoring core)
      ---      ----    --------- --------- -----
      175    0.221864  1111110010111000
      235   -0.427643  1011110011111000
      820    0.427643  1111100010111100
      935   -0.679645  1011100011111100
      946   -0.057437  0011110011111100
      988    0.050491  1010001111111100
     1179   -0.058999  1011011011110010
     2036    0.058999  1111001010110110
     2145   -0.050283  1011100011110110
     2159   -0.093767  1011001011110110
     2182   -0.059357  1010100111110110
     3364   -0.058583  1010110111101001
     4384    0.058583  1110100110101101
     4477   -0.053651  1011100011101101
     4491   -0.059737  1011001011101101
     4514   -0.093105  1010100111101101

 State #    5  Energy =   -1835.207808076  S =  1.000

      Det      Coef    Occupancy (Ignoring core)
      ---      ----    --------- --------- -----
      139   -0.711985  1111110011011000
      141   -0.056204  1111011011011000
      148   -0.052675  1110110111011000
      234   -0.068096  1101110011111000
      708   -0.060170  1111110001011100
      736    0.068096  1111100011011100
      934   -0.600585  1101100011111100
      945   -0.050755  0101110011111100
     1076   -0.097493  1111011011010010
     1083   -0.062223  1110110111010010
     2158   -0.082239  1101001011110110
     2181   -0.052823  1100100111110110
     3243   -0.062621  1111011011001001
     3250   -0.098186  1110110111001001
     4490   -0.052487  1101001011101101
     4513   -0.082824  1100100111101101
     5023    0.052894  1111110011000011

 State #    6  Energy =   -1835.207808076  S =  1.000

      Det      Coef    Occupancy (Ignoring core)
      ---      ----    --------- --------- -----
      139    0.464050  1111110011011000
      234    0.361871  1101110011111000
      736   -0.361871  1111100011011100
      934   -0.632183  1101100011111100
      945   -0.053426  0101110011111100
     1076    0.063543  1111011011010010
     2158   -0.086566  1101001011110110
     2181   -0.055602  1100100111110110
     3250    0.063995  1110110111001001
     4490   -0.055249  1101001011101101
     4513   -0.087181  1100100111101101

 State #    7  Energy =   -1835.207808076  S =  1.000

      Det      Coef    Occupancy (Ignoring core)
      ---      ----    --------- --------- -----
      139    0.393237  1111110011011000
      234   -0.550329  1101110011111000
      459   -0.052548  1101101011110100
      639   -0.055098  1101100111101100
      736    0.550329  1111100011011100
      934   -0.341381  1101100011111100
     1076    0.053847  1111011011010010
     1178   -0.075357  1101011011110010
     1452    0.052548  1111010011011010
     1952    0.075357  1111001011010110
     3250    0.054229  1110110111001001
     3363   -0.075893  1100110111101001
     3455    0.055098  1110110011011001
     4300    0.075893  1110100111001101

 State #    8  Energy =   -1835.193976478  S =  1.000

      Det      Coef    Occupancy (Ignoring core)
      ---      ----    --------- --------- -----
       39    0.212779  1111110011110000
      232   -0.642537  1111010011111000
      233    0.092369  1110110011111000
      451    0.642537  1111100011110100
      456   -0.081859  0111110011110100
      487   -0.065630  1110001111110100
      616   -0.092369  1111100011101100
      877    0.081859  1111010001111100
      932    0.138111  1111000011111100
     1192    0.063243  1110010111110010
     3359    0.093384  1110010111101001
     3834   -0.063243  1111001011100101
     3850   -0.093384  1110100111100101
     5116    0.065630  1111010011100011

 State #    9  Energy =   -1835.193976478  S =  1.000

      Det      Coef    Occupancy (Ignoring core)
      ---      ----    --------- --------- -----
       39    0.849449  1111110011110000
       57   -0.081547  1110011111110000
       94   -0.122115  1111110011101000
      232    0.175758  1111010011111000
      423    0.108220  1111110001110100
      425    0.057920  1111011001110100
      432    0.053003  1110110101110100
      451   -0.175758  1111100011110100
      932    0.326668  1111000011111100
     1031   -0.055456  1111011011100010
     1038   -0.050477  1110110111100010
     3033   -0.088825  1111011011100001
     3040   -0.123456  1110110111100001

 State #   10  Energy =   -1835.193976478  S =  1.000

      Det      Coef    Occupancy (Ignoring core)
      ---      ----    --------- --------- -----
       39   -0.351025  1111110011110000
       94    0.050462  1111110011101000
      932    0.874226  1111000011111100
      933   -0.125677  1110100011111100
      940    0.111376  0111010011111100
     2150    0.059610  0111010011110110
     2157   -0.057073  1110001011110110
     2177   -0.091416  1110000111110110
     3040    0.051017  1110110111100001
     3654   -0.050981  1110010011111001
     4482    0.054549  0111010011101101
     4489   -0.051949  1110001011101101
     4509   -0.127057  1110000111101101
     6553   -0.083925  1111000011100111

 State #   11  Energy =   -1835.193976450  S =  1.000

      Det      Coef    Occupancy (Ignoring core)
      ---      ----    --------- --------- -----
      232   -0.095050  1111010011111000
      233   -0.661183  1110110011111000
      451    0.095050  1111100011110100
      616    0.661183  1111100011101100
      621   -0.084235  0111110011101100
      652   -0.067534  1110001111101100
      878    0.084235  1110110001111100
      933   -0.122240  1110100011111100
     1177   -0.096094  1110011011110010
     1832    0.096094  1111001011100110
     1848    0.065078  1110100111100110
     3344   -0.065078  1110011011101001
     5117    0.067534  1110110011100011

 State #   12  Energy =   -1835.193976450  S =  1.000

      Det      Coef    Occupancy (Ignoring core)
      ---      ----    --------- --------- -----
       39    0.082360  1111110011110000
       94    0.572911  1111110011101000
      112   -0.054999  1110011111101000
      233    0.056712  1110110011111000
      588    0.072989  1111110001101100
      616   -0.056712  1111100011101100
      932   -0.107136  1111000011111100
      933   -0.745251  1110100011111100
      943   -0.094945  0110110011111100
     1031    0.083265  1111011011100010
     1038    0.059908  1110110111100010
     2157   -0.108312  1110001011110110
     4485   -0.050816  0110110011101101
     4489   -0.077930  1110001011101101
     6554    0.071544  1110100011100111

 State #   13  Energy =   -1835.193976450  S =  1.000

      Det      Coef    Occupancy (Ignoring core)
      ---      ----    --------- --------- -----
       39   -0.107679  1111110011110000
       94   -0.749026  1111110011101000
      112    0.071906  1110011111101000
      233    0.068192  1110110011111000
      588   -0.095426  1111110001101100
      597   -0.051073  1110110101101100
      616   -0.068192  1111100011101100
      932   -0.081287  1111000011111100
      933   -0.565435  1110100011111100
      943   -0.072036  0110110011111100
     1031   -0.108861  1111011011100010
     1038   -0.078324  1110110111100010
     2157   -0.082179  1110001011110110
     4489   -0.059127  1110001011101101
     6554    0.054282  1110100011100111

 State #   14  Energy =   -1835.175021815  S =  0.000

      Det      Coef    Occupancy (Ignoring core)
      ---      ----    --------- --------- -----
      235    0.665009  1011110011111000
      239   -0.067804  1101101011111000
      255   -0.067805  1011100111111000
      820    0.665009  1111100010111100
     1179    0.089474  1011011011110010
     1197    0.057548  1010110111110010
     1451   -0.067804  1111100011011010
     2036    0.089474  1111001010110110
     2052    0.057556  1110100110110110
     3346    0.057556  1011011011101001
     3364    0.089075  1010110111101001
     3537   -0.067805  1111100010111001
     4368    0.057548  1111001010101101
     4384    0.089075  1110100110101101

 State #   15  Energy =   -1835.175021657  S =  0.000

      Det      Coef    Occupancy (Ignoring core)
      ---      ----    --------- --------- -----
      234    0.665009  1101110011111000
      240   -0.067804  1011101011111000
      254    0.067804  1101100111111000
      736    0.665009  1111100011011100
     1178    0.089053  1101011011110010
     1196    0.057577  1100110111110010
     1535   -0.067804  1111100010111010
     1952    0.089053  1111001011010110
     1968    0.057570  1110100111010110
     3345    0.057570  1101011011101001
     3363    0.089453  1100110111101001
     3453    0.067804  1111100011011001
     4284    0.057577  1111001011001101
     4300    0.089453  1110100111001101

 State #   16  Energy =   -1835.153993214  S =  0.000

      Det      Coef    Occupancy (Ignoring core)
      ---      ----    --------- --------- -----
      232    0.117179  1111010011111000
      233    0.665402  1110110011111000
      451    0.117179  1111100011110100
      616    0.665402  1111100011101100
      621   -0.061556  0111110011101100
      652   -0.072192  1110001111101100
      878   -0.061556  1110110001111100
     1177    0.091845  1110011011110010
     1832    0.091845  1111001011100110
     1848    0.068982  1110100111100110
     3344    0.068982  1110011011101001
     5117   -0.072192  1110110011100011

 State #   17  Energy =   -1835.153993199  S =  0.000

      Det      Coef    Occupancy (Ignoring core)
      ---      ----    --------- --------- -----
      232   -0.665402  1111010011111000
      233    0.117179  1110110011111000
      451   -0.665402  1111100011110100
      456    0.061556  0111110011110100
      487    0.072192  1110001111110100
      616    0.117179  1111100011101100
      877    0.061556  1111010001111100
     1192    0.068982  1110010111110010
     3359    0.091845  1110010111101001
     3834    0.068982  1111001011100101
     3850    0.091845  1110100111100101
     5116    0.072192  1111010011100011

 DENSITY MATRIX OVER ACTIVE MO-S

             1           2           3           4           5

    1    1.9766082
    2    0.0000000   1.7751230
    3   -0.0000000   0.0000000   1.7751230
    4    0.0000001   0.0000000  -0.0000000   1.7011420
    5   -0.0000000   0.0000000   0.0000000   0.0000000   1.7011421
    6   -0.0919447  -0.0000001   0.0000000  -0.0000002   0.0000000
    7    0.0000001   0.0000000  -0.0000000   0.0113764  -0.0349603
    8    0.0000003   0.0000001   0.0000000   0.0349602   0.0113765

             6           7           8

    6    0.9056685
    7   -0.0000005   0.0825966
    8   -0.0000009   0.0000000   0.0825966

 FORMING THE "STANDARD FOCK OPERATOR" IN DIRECT AO INTEGRAL MODE...
 ONLY THE   43 CORE AND  318 VIRTUAL ORBITALS WILL BE CANONICALIZED

          ----------------------
          MCSCF NATURAL ORBITALS
          ----------------------

                      1          2          3          4          5
                 -263.6620   -32.4510   -27.5191   -27.5191   -27.5148
                     A          A          A          A          A   
    1  FE 1  S    0.997431  -0.320541  -0.000000  -0.000000   0.000000
    2  FE 1  S    0.011917   1.048375   0.000000   0.000000  -0.000000
    3  FE 1  S    0.003407   0.027471  -0.000000   0.000000   0.000000
    4  FE 1  S   -0.007216  -0.014261   0.000000   0.000000  -0.000000
    5  FE 1  S    0.002317   0.004574   0.000000  -0.000000  -0.000000
    6  FE 1  S   -0.003582  -0.011062  -0.000000   0.000000   0.000000
    7  FE 1  S    0.000701   0.002469   0.000000   0.000000  -0.000000
    8  FE 1  S   -0.000080  -0.000255   0.000000   0.000000   0.000000
    9  FE 1  X    0.000000  -0.000000  -0.003168   0.997420   0.000001
   10  FE 1  Y    0.000000  -0.000000   0.997420   0.003168  -0.000000
   11  FE 1  Z    0.000000   0.000000   0.000000  -0.000001   0.997436
   12  FE 1  X   -0.000000  -0.000000  -0.000002   0.000562   0.000000
   13  FE 1  Y    0.000000  -0.000000   0.000562   0.000002  -0.000000
   14  FE 1  Z   -0.000000  -0.000000   0.000000  -0.000000   0.000433
   15  FE 1  X    0.000000   0.000000  -0.000029   0.009053   0.000000
   16  FE 1  Y   -0.000000   0.000000   0.009053   0.000029   0.000000
   17  FE 1  Z    0.000000   0.000000   0.000000  -0.000000   0.009333
   18  FE 1  X   -0.000000  -0.000000   0.000008  -0.002492  -0.000000
   19  FE 1  Y    0.000000  -0.000000  -0.002492  -0.000008  -0.000000
   20  FE 1  Z   -0.000000  -0.000000   0.000000   0.000000  -0.002725
   21  FE 1  X    0.000000   0.000000  -0.000003   0.001085  -0.000000
   22  FE 1  Y   -0.000000   0.000000   0.001085   0.000003  -0.000000
   23  FE 1  Z    0.000000   0.000000  -0.000000  -0.000000   0.001230
   24  FE 1  X    0.000000  -0.000000  -0.000002   0.000774   0.000000
   25  FE 1  Y   -0.000000   0.000000   0.000774   0.000002   0.000000
   26  FE 1  Z   -0.000000  -0.000000   0.000000  -0.000000   0.000391
   27  FE 1 XX    0.000004  -0.000179   0.000000  -0.000041  -0.000000
   28  FE 1 YY    0.000004  -0.000179  -0.000000   0.000041   0.000000
   29  FE 1 ZZ   -0.000008   0.000359  -0.000000   0.000000  -0.000000
   30  FE 1 XY   -0.000000   0.000000   0.000048   0.000000   0.000000
   31  FE 1 XZ    0.000000  -0.000000   0.000000   0.000000   0.000000
   32  FE 1 YZ   -0.000000  -0.000000   0.000000   0.000000  -0.000000
   33  FE 1 XX   -0.000019  -0.000241  -0.000001   0.000158   0.000000
   34  FE 1 YY   -0.000019  -0.000241   0.000001  -0.000158  -0.000000
   35  FE 1 ZZ    0.000037   0.000483   0.000000  -0.000000   0.000000
   36  FE 1 XY    0.000000  -0.000000  -0.000182  -0.000001  -0.000000
   37  FE 1 XZ    0.000000   0.000000   0.000000   0.000000   0.000000
   38  FE 1 YZ    0.000000   0.000000   0.000000  -0.000000  -0.000000
   39  FE 1 XX    0.000133   0.000690   0.000001  -0.000435  -0.000000
   40  FE 1 YY    0.000133   0.000690  -0.000001   0.000435   0.000000
   41  FE 1 ZZ   -0.000266  -0.001381  -0.000000  -0.000000  -0.000000
   42  FE 1 XY   -0.000000   0.000000   0.000502   0.000002   0.000000
   43  FE 1 XZ   -0.000000  -0.000000   0.000000  -0.000000   0.000000
   44  FE 1 YZ    0.000000  -0.000000  -0.000000  -0.000000   0.000000
   45  FE 1 XX   -0.000053  -0.000590  -0.000002   0.000581   0.000000
   46  FE 1 YY   -0.000053  -0.000590   0.000002  -0.000581  -0.000000
   47  FE 1 ZZ    0.000105   0.001180   0.000000   0.000000  -0.000000
   48  FE 1 XY    0.000000  -0.000000  -0.000670  -0.000002  -0.000000
   49  FE 1 XZ    0.000000  -0.000000   0.000000   0.000000  -0.000000
   50  FE 1 YZ   -0.000000   0.000000   0.000000   0.000000   0.000000
   51  FE 1 XXX   0.000016   0.000072  -0.000000   0.000014   0.000000
   52  FE 1 YYY   0.000000   0.000000   0.000014   0.000000   0.000000
   53  FE 1 ZZZ  -0.000000   0.000000  -0.000000   0.000000  -0.000037
   54  FE 1 XXY   0.000000   0.000000   0.000006   0.000000  -0.000000
   55  FE 1 XXZ   0.000000   0.000000   0.000000  -0.000000   0.000025
   56  FE 1 YYX  -0.000022  -0.000097  -0.000000   0.000006  -0.000000
   57  FE 1 YYZ   0.000000   0.000000   0.000000  -0.000000   0.000025
   58  FE 1 ZZX   0.000000   0.000000   0.000000  -0.000025  -0.000000
   59  FE 1 ZZY   0.000000   0.000000  -0.000025  -0.000000   0.000000
   60  FE 1 XYZ   0.000000   0.000000   0.000000   0.000000  -0.000000
   61  FE 1 XXX  -0.000117  -0.000428   0.000000  -0.000056  -0.000000
   62  FE 1 YYY   0.000000  -0.000000  -0.000056  -0.000000  -0.000000
   63  FE 1 ZZZ   0.000000  -0.000000   0.000000  -0.000000  -0.000085
   64  FE 1 XXY   0.000000  -0.000000  -0.000025  -0.000000   0.000000
   65  FE 1 XXZ  -0.000000   0.000000  -0.000000   0.000000   0.000057
   66  FE 1 YYX   0.000156   0.000574   0.000000  -0.000025  -0.000000
   67  FE 1 YYZ  -0.000000  -0.000000  -0.000000   0.000000   0.000057
   68  FE 1 ZZX  -0.000000  -0.000000  -0.000000   0.000100   0.000000
   69  FE 1 ZZY   0.000000   0.000000   0.000100   0.000000   0.000000
   70  FE 1 XYZ   0.000000  -0.000000   0.000000   0.000000  -0.000000
   71  FE 1XXXX  -0.000018  -0.000071   0.000000  -0.000013  -0.000000
   72  FE 1YYYY  -0.000018  -0.000071   0.000000  -0.000004  -0.000000
   73  FE 1ZZZZ  -0.000048  -0.000190   0.000000   0.000000  -0.000000
   74  FE 1XXXY   0.000000   0.000000  -0.000009  -0.000000   0.000000
   75  FE 1XXXZ   0.000000   0.000000   0.000000   0.000000   0.000008
   76  FE 1YYYX   0.000000  -0.000000   0.000016   0.000000  -0.000000
   77  FE 1YYYZ   0.000000   0.000000   0.000000   0.000000   0.000000
   78  FE 1ZZZX   0.000000  -0.000000   0.000000   0.000000   0.000000
   79  FE 1ZZZY  -0.000000  -0.000000   0.000000  -0.000000   0.000000
   80  FE 1XXYY  -0.000010  -0.000042  -0.000000   0.000015   0.000000
   81  FE 1XXZZ   0.000042   0.000166  -0.000000   0.000008   0.000000
   82  FE 1YYZZ   0.000042   0.000166   0.000000  -0.000008   0.000000
   83  FE 1XXYZ  -0.000000  -0.000000   0.000000  -0.000000   0.000000
   84  FE 1YYXZ   0.000000   0.000000  -0.000000   0.000000  -0.000010
   85  FE 1ZZXY   0.000000  -0.000000  -0.000009  -0.000000   0.000000
   86  C  2  S   -0.000031   0.000041  -0.000008   0.000004   0.000000
   87  C  2  S   -0.000199  -0.000861  -0.000028   0.000016   0.000000
   88  C  2  S    0.000554   0.001193  -0.000114   0.000065  -0.000000
   89  C  2  S    0.000039   0.000070  -0.000402   0.000231   0.000000
   90  C  2  X   -0.000015  -0.000159  -0.000013   0.000009   0.000000
   91  C  2  Y    0.000026   0.000276   0.000024  -0.000013  -0.000000
   92  C  2  Z   -0.000000  -0.000000   0.000000   0.000000   0.000007
   93  C  2  X    0.000117   0.000327   0.000073  -0.000029   0.000000
   94  C  2  Y   -0.000203  -0.000567  -0.000113   0.000072  -0.000000
   95  C  2  Z    0.000000  -0.000000  -0.000000  -0.000000   0.000002
   96  C  2  X   -0.000107  -0.000301  -0.000306   0.000214   0.000000
   97  C  2  Y    0.000185   0.000522   0.000569  -0.000303  -0.000000
   98  C  2  Z    0.000000  -0.000000   0.000000  -0.000000   0.000038
   99  C  2 XX    0.000001   0.000002  -0.000001  -0.000001   0.000000
  100  C  2 YY   -0.000005  -0.000018   0.000006  -0.000002  -0.000000
  101  C  2 ZZ    0.000003   0.000016  -0.000005   0.000003   0.000000
  102  C  2 XY    0.000006   0.000020  -0.000005   0.000004   0.000000
  103  C  2 XZ   -0.000000   0.000000  -0.000000   0.000000   0.000001
  104  C  2 YZ    0.000000  -0.000000   0.000000   0.000000  -0.000001
  105  C  2 XX   -0.000027  -0.000077   0.000009   0.000004   0.000000
  106  C  2 YY    0.000147   0.000434  -0.000022   0.000004  -0.000000
  107  C  2 ZZ   -0.000120  -0.000358   0.000013  -0.000008   0.000000
  108  C  2 XY   -0.000174  -0.000511   0.000021  -0.000018   0.000000
  109  C  2 XZ    0.000000  -0.000000   0.000000   0.000000  -0.000026
  110  C  2 YZ   -0.000000   0.000000  -0.000000  -0.000000   0.000045
  111  C  2 XXX  -0.000038  -0.000141  -0.000048   0.000028   0.000000
  112  C  2 YYY  -0.000029  -0.000105  -0.000037   0.000026   0.000000
  113  C  2 ZZZ  -0.000000   0.000000  -0.000000   0.000000  -0.000003
  114  C  2 XXY  -0.000013  -0.000047  -0.000020   0.000006  -0.000000
  115  C  2 XXZ   0.000000  -0.000000   0.000000   0.000000   0.000000
  116  C  2 YYX   0.000081   0.000298   0.000105  -0.000060  -0.000000
  117  C  2 YYZ   0.000000  -0.000000   0.000000  -0.000000   0.000004
  118  C  2 ZZX  -0.000030  -0.000109  -0.000041   0.000022   0.000000
  119  C  2 ZZY   0.000051   0.000188   0.000069  -0.000041  -0.000000
  120  C  2 XYZ  -0.000000   0.000000   0.000000   0.000000  -0.000004
  121  C  3  S   -0.000031   0.000041   0.000008   0.000004   0.000000
  122  C  3  S   -0.000199  -0.000861   0.000028   0.000016   0.000000
  123  C  3  S    0.000554   0.001193   0.000114   0.000066  -0.000000
  124  C  3  S    0.000039   0.000070   0.000401   0.000233   0.000000
  125  C  3  X   -0.000015  -0.000159   0.000013   0.000009   0.000000
  126  C  3  Y   -0.000026  -0.000276   0.000024   0.000013   0.000000
  127  C  3  Z    0.000000  -0.000000   0.000000   0.000000   0.000007
  128  C  3  X    0.000117   0.000327  -0.000073  -0.000029   0.000000
  129  C  3  Y    0.000203   0.000567  -0.000113  -0.000073   0.000000
  130  C  3  Z   -0.000000   0.000000  -0.000000  -0.000000   0.000002
  131  C  3  X   -0.000107  -0.000301   0.000305   0.000216   0.000000
  132  C  3  Y   -0.000185  -0.000522   0.000567   0.000307   0.000000
  133  C  3  Z    0.000000   0.000000   0.000000  -0.000000   0.000038
  134  C  3 XX    0.000001   0.000002   0.000001  -0.000001   0.000000
  135  C  3 YY   -0.000005  -0.000018  -0.000006  -0.000002  -0.000000
  136  C  3 ZZ    0.000003   0.000016   0.000005   0.000003   0.000000
  137  C  3 XY   -0.000006  -0.000020  -0.000005  -0.000004  -0.000000
  138  C  3 XZ   -0.000000   0.000000  -0.000000   0.000000   0.000001
  139  C  3 YZ   -0.000000   0.000000  -0.000000   0.000000   0.000001
  140  C  3 XX   -0.000027  -0.000077  -0.000009   0.000004   0.000000
  141  C  3 YY    0.000147   0.000434   0.000022   0.000004  -0.000000
  142  C  3 ZZ   -0.000120  -0.000358  -0.000013  -0.000008   0.000000
  143  C  3 XY    0.000174   0.000511   0.000021   0.000018  -0.000000
  144  C  3 XZ   -0.000000  -0.000000   0.000000   0.000000  -0.000026
  145  C  3 YZ   -0.000000  -0.000000   0.000000   0.000000  -0.000045
  146  C  3 XXX  -0.000038  -0.000141   0.000048   0.000028   0.000000
  147  C  3 YYY   0.000029   0.000105  -0.000037  -0.000026   0.000000
  148  C  3 ZZZ   0.000000  -0.000000   0.000000   0.000000  -0.000003
  149  C  3 XXY   0.000013   0.000047  -0.000020  -0.000006  -0.000000
  150  C  3 XXZ  -0.000000   0.000000   0.000000  -0.000000   0.000000
  151  C  3 YYX   0.000081   0.000298  -0.000105  -0.000060  -0.000000
  152  C  3 YYZ   0.000000   0.000000  -0.000000  -0.000000   0.000004
  153  C  3 ZZX  -0.000030  -0.000109   0.000041   0.000022  -0.000000
  154  C  3 ZZY  -0.000051  -0.000188   0.000069   0.000041   0.000000
  155  C  3 XYZ   0.000000   0.000000  -0.000000  -0.000000   0.000004
  156  C  4  S   -0.000031   0.000041   0.000000  -0.000009  -0.000000
  157  C  4  S   -0.000199  -0.000861   0.000000  -0.000032  -0.000000
  158  C  4  S    0.000554   0.001193   0.000000  -0.000132   0.000000
  159  C  4  S    0.000039   0.000070   0.000001  -0.000464  -0.000000
  160  C  4  X    0.000030   0.000319  -0.000000   0.000032   0.000000
  161  C  4  Y    0.000000   0.000000   0.000001   0.000000   0.000000
  162  C  4  Z    0.000000   0.000000   0.000000   0.000000   0.000007
  163  C  4  X   -0.000234  -0.000654   0.000000  -0.000155   0.000000
  164  C  4  Y   -0.000000  -0.000000   0.000013   0.000000  -0.000000
  165  C  4  Z    0.000000  -0.000000  -0.000000  -0.000000   0.000002
  166  C  4  X    0.000213   0.000602  -0.000002   0.000744   0.000000
  167  C  4  Y   -0.000000  -0.000000   0.000039   0.000000  -0.000000
  168  C  4  Z    0.000000   0.000000   0.000000   0.000000   0.000038
  169  C  4 XX   -0.000008  -0.000028  -0.000000   0.000010   0.000000
  170  C  4 YY    0.000005   0.000012   0.000000  -0.000004  -0.000000
  171  C  4 ZZ    0.000003   0.000016   0.000000  -0.000006  -0.000000
  172  C  4 XY   -0.000000   0.000000   0.000002   0.000000   0.000000
  173  C  4 XZ    0.000000  -0.000000   0.000000   0.000000  -0.000001
  174  C  4 YZ   -0.000000   0.000000   0.000000   0.000000   0.000000
  175  C  4 XX    0.000234   0.000690   0.000000  -0.000035   0.000000
  176  C  4 YY   -0.000114  -0.000332  -0.000000   0.000019  -0.000000
  177  C  4 ZZ   -0.000120  -0.000358  -0.000000   0.000015  -0.000000
  178  C  4 XY    0.000000  -0.000000  -0.000010  -0.000000   0.000000
  179  C  4 XZ    0.000000  -0.000000  -0.000000  -0.000000   0.000052
  180  C  4 YZ    0.000000  -0.000000   0.000000   0.000000  -0.000000
  181  C  4 XXX  -0.000088  -0.000323   0.000000  -0.000133  -0.000000
  182  C  4 YYY   0.000000  -0.000000  -0.000003  -0.000000   0.000000
  183  C  4 ZZZ  -0.000000   0.000000  -0.000000   0.000000  -0.000003
  184  C  4 XXY  -0.000000   0.000000   0.000005   0.000000  -0.000000
  185  C  4 XXZ   0.000000  -0.000000  -0.000000  -0.000000   0.000006
  186  C  4 YYX   0.000059   0.000217  -0.000000   0.000086   0.000000
  187  C  4 YYZ  -0.000000   0.000000   0.000000   0.000000  -0.000002
  188  C  4 ZZX   0.000059   0.000217  -0.000000   0.000093   0.000000
  189  C  4 ZZY   0.000000   0.000000  -0.000001  -0.000000  -0.000000
  190  C  4 XYZ  -0.000000  -0.000000   0.000000   0.000000   0.000000
  191  O  5  S   -0.000000  -0.000023  -0.000002   0.000001   0.000000
  192  O  5  S    0.000017   0.000087   0.000010  -0.000006   0.000000
  193  O  5  S    0.000003   0.000193   0.000248  -0.000142  -0.000000
  194  O  5  S   -0.000376  -0.001005  -0.000516   0.000295   0.000000
  195  O  5  X   -0.000001   0.000034  -0.000000   0.000004  -0.000000
  196  O  5  Y    0.000002  -0.000058   0.000004  -0.000000   0.000000
  197  O  5  Z    0.000000  -0.000000  -0.000000   0.000000   0.000001
  198  O  5  X    0.000030   0.000175   0.000051  -0.000023   0.000000
  199  O  5  Y   -0.000052  -0.000304  -0.000081   0.000050  -0.000000
  200  O  5  Z   -0.000000   0.000000   0.000000   0.000000  -0.000015
  201  O  5  X   -0.000055  -0.000101  -0.000059   0.000023   0.000000
  202  O  5  Y    0.000094   0.000174   0.000092  -0.000058  -0.000000
  203  O  5  Z   -0.000000  -0.000000  -0.000000   0.000000  -0.000037
  204  O  5 XX   -0.000001  -0.000005  -0.000002   0.000002  -0.000000
  205  O  5 YY    0.000006   0.000025   0.000009  -0.000006  -0.000000
  206  O  5 ZZ   -0.000005  -0.000021  -0.000007   0.000004   0.000000
  207  O  5 XY   -0.000007  -0.000030  -0.000012   0.000006   0.000000
  208  O  5 XZ    0.000000  -0.000000   0.000000   0.000000   0.000002
  209  O  5 YZ    0.000000  -0.000000   0.000000   0.000000  -0.000003
  210  O  5 XX   -0.000004  -0.000018  -0.000003  -0.000005   0.000000
  211  O  5 YY    0.000020   0.000080   0.000006   0.000003   0.000000
  212  O  5 ZZ   -0.000016  -0.000062  -0.000003   0.000002  -0.000000
  213  O  5 XY   -0.000025  -0.000098  -0.000001   0.000005  -0.000000
  214  O  5 XZ   -0.000000   0.000000   0.000000   0.000000  -0.000010
  215  O  5 YZ    0.000000   0.000000   0.000000  -0.000000   0.000017
  216  O  5 XXX  -0.000007  -0.000024  -0.000002   0.000001  -0.000000
  217  O  5 YYY  -0.000005  -0.000016  -0.000003  -0.000000   0.000000
  218  O  5 ZZZ   0.000000  -0.000000   0.000000  -0.000000   0.000001
  219  O  5 XXY  -0.000002  -0.000007   0.000000   0.000002  -0.000000
  220  O  5 XXZ  -0.000000   0.000000   0.000000   0.000000  -0.000000
  221  O  5 YYX   0.000014   0.000049   0.000005  -0.000003   0.000000
  222  O  5 YYZ  -0.000000   0.000000  -0.000000   0.000000  -0.000001
  223  O  5 ZZX  -0.000005  -0.000017  -0.000002   0.000002   0.000000
  224  O  5 ZZY   0.000009   0.000029   0.000004  -0.000002   0.000000
  225  O  5 XYZ   0.000000  -0.000000   0.000000   0.000000   0.000001
  226  O  6  S   -0.000000  -0.000023   0.000002   0.000001  -0.000000
  227  O  6  S    0.000017   0.000087  -0.000010  -0.000006   0.000000
  228  O  6  S    0.000003   0.000193  -0.000247  -0.000143   0.000000
  229  O  6  S   -0.000376  -0.001005   0.000514   0.000299   0.000000
  230  O  6  X   -0.000001   0.000034   0.000000   0.000004  -0.000000
  231  O  6  Y   -0.000002   0.000058   0.000004   0.000000  -0.000000
  232  O  6  Z    0.000000  -0.000000  -0.000000   0.000000   0.000001
  233  O  6  X    0.000030   0.000175  -0.000050  -0.000023   0.000000
  234  O  6  Y    0.000052   0.000304  -0.000081  -0.000051   0.000000
  235  O  6  Z   -0.000000  -0.000000   0.000000   0.000000  -0.000015
  236  O  6  X   -0.000055  -0.000101   0.000059   0.000024   0.000000
  237  O  6  Y   -0.000094  -0.000174   0.000091   0.000059   0.000000
  238  O  6  Z   -0.000000  -0.000000   0.000000   0.000000  -0.000037
  239  O  6 XX   -0.000001  -0.000005   0.000002   0.000002   0.000000
  240  O  6 YY    0.000006   0.000025  -0.000009  -0.000006  -0.000000
  241  O  6 ZZ   -0.000005  -0.000021   0.000007   0.000004   0.000000
  242  O  6 XY    0.000007   0.000030  -0.000012  -0.000006  -0.000000
  243  O  6 XZ    0.000000   0.000000  -0.000000   0.000000   0.000002
  244  O  6 YZ    0.000000   0.000000  -0.000000  -0.000000   0.000003
  245  O  6 XX   -0.000004  -0.000018   0.000003  -0.000005  -0.000000
  246  O  6 YY    0.000020   0.000080  -0.000006   0.000003   0.000000
  247  O  6 ZZ   -0.000016  -0.000062   0.000003   0.000002  -0.000000
[...]
-rw-r-----. 1 bjb2chen bjb2chen     103000 May 27 19:03 /localscratch/bjb2chen.29656358.0/FeCO_SPK_gmcpt_C1_17st_diab_0.05_-x5q15.F91.003
-rw-r-----. 1 bjb2chen bjb2chen     103000 May 27 19:03 /localscratch/bjb2chen.29656358.0/FeCO_SPK_gmcpt_C1_17st_diab_0.05_-x5q15.F91.004
-rw-r-----. 1 bjb2chen bjb2chen     103000 May 27 19:03 /localscratch/bjb2chen.29656358.0/FeCO_SPK_gmcpt_C1_17st_diab_0.05_-x5q15.F91.005
-rw-r-----. 1 bjb2chen bjb2chen     103000 May 27 19:03 /localscratch/bjb2chen.29656358.0/FeCO_SPK_gmcpt_C1_17st_diab_0.05_-x5q15.F91.006
-rw-r-----. 1 bjb2chen bjb2chen     103000 May 27 19:03 /localscratch/bjb2chen.29656358.0/FeCO_SPK_gmcpt_C1_17st_diab_0.05_-x5q15.F91.007
-rw-r-----. 1 bjb2chen bjb2chen     103000 May 27 19:03 /localscratch/bjb2chen.29656358.0/FeCO_SPK_gmcpt_C1_17st_diab_0.05_-x5q15.F91.008
-rw-r-----. 1 bjb2chen bjb2chen     103000 May 27 19:03 /localscratch/bjb2chen.29656358.0/FeCO_SPK_gmcpt_C1_17st_diab_0.05_-x5q15.F91.009
-rw-r-----. 1 bjb2chen bjb2chen     103000 May 27 19:03 /localscratch/bjb2chen.29656358.0/FeCO_SPK_gmcpt_C1_17st_diab_0.05_-x5q15.F91.010
-rw-r-----. 1 bjb2chen bjb2chen     103000 May 27 19:03 /localscratch/bjb2chen.29656358.0/FeCO_SPK_gmcpt_C1_17st_diab_0.05_-x5q15.F91.011
-rw-r-----. 1 bjb2chen bjb2chen     103000 May 27 19:03 /localscratch/bjb2chen.29656358.0/FeCO_SPK_gmcpt_C1_17st_diab_0.05_-x5q15.F91.012
-rw-r-----. 1 bjb2chen bjb2chen     103000 May 27 19:03 /localscratch/bjb2chen.29656358.0/FeCO_SPK_gmcpt_C1_17st_diab_0.05_-x5q15.F91.013
-rw-r-----. 1 bjb2chen bjb2chen     103000 May 27 19:03 /localscratch/bjb2chen.29656358.0/FeCO_SPK_gmcpt_C1_17st_diab_0.05_-x5q15.F91.014
-rw-r-----. 1 bjb2chen bjb2chen     103000 May 27 19:03 /localscratch/bjb2chen.29656358.0/FeCO_SPK_gmcpt_C1_17st_diab_0.05_-x5q15.F91.015
-rw-r-----. 1 bjb2chen bjb2chen      91560 May 27 19:03 /localscratch/bjb2chen.29656358.0/FeCO_SPK_gmcpt_C1_17st_diab_0.05_-x5q15.F92
-rw-r-----. 1 bjb2chen bjb2chen      91560 May 27 19:03 /localscratch/bjb2chen.29656358.0/FeCO_SPK_gmcpt_C1_17st_diab_0.05_-x5q15.F92.001
-rw-r-----. 1 bjb2chen bjb2chen      91560 May 27 19:03 /localscratch/bjb2chen.29656358.0/FeCO_SPK_gmcpt_C1_17st_diab_0.05_-x5q15.F92.002
-rw-r-----. 1 bjb2chen bjb2chen      91560 May 27 19:03 /localscratch/bjb2chen.29656358.0/FeCO_SPK_gmcpt_C1_17st_diab_0.05_-x5q15.F92.003
-rw-r-----. 1 bjb2chen bjb2chen      91560 May 27 19:03 /localscratch/bjb2chen.29656358.0/FeCO_SPK_gmcpt_C1_17st_diab_0.05_-x5q15.F92.004
-rw-r-----. 1 bjb2chen bjb2chen      91560 May 27 19:03 /localscratch/bjb2chen.29656358.0/FeCO_SPK_gmcpt_C1_17st_diab_0.05_-x5q15.F92.005
-rw-r-----. 1 bjb2chen bjb2chen      91560 May 27 19:03 /localscratch/bjb2chen.29656358.0/FeCO_SPK_gmcpt_C1_17st_diab_0.05_-x5q15.F92.006
-rw-r-----. 1 bjb2chen bjb2chen      91560 May 27 19:03 /localscratch/bjb2chen.29656358.0/FeCO_SPK_gmcpt_C1_17st_diab_0.05_-x5q15.F92.007
-rw-r-----. 1 bjb2chen bjb2chen      91560 May 27 19:03 /localscratch/bjb2chen.29656358.0/FeCO_SPK_gmcpt_C1_17st_diab_0.05_-x5q15.F92.008
-rw-r-----. 1 bjb2chen bjb2chen      91560 May 27 19:03 /localscratch/bjb2chen.29656358.0/FeCO_SPK_gmcpt_C1_17st_diab_0.05_-x5q15.F92.009
-rw-r-----. 1 bjb2chen bjb2chen      91560 May 27 19:03 /localscratch/bjb2chen.29656358.0/FeCO_SPK_gmcpt_C1_17st_diab_0.05_-x5q15.F92.010
-rw-r-----. 1 bjb2chen bjb2chen      91560 May 27 19:03 /localscratch/bjb2chen.29656358.0/FeCO_SPK_gmcpt_C1_17st_diab_0.05_-x5q15.F92.011
-rw-r-----. 1 bjb2chen bjb2chen      91560 May 27 19:03 /localscratch/bjb2chen.29656358.0/FeCO_SPK_gmcpt_C1_17st_diab_0.05_-x5q15.F92.012
-rw-r-----. 1 bjb2chen bjb2chen      91560 May 27 19:03 /localscratch/bjb2chen.29656358.0/FeCO_SPK_gmcpt_C1_17st_diab_0.05_-x5q15.F92.013
-rw-r-----. 1 bjb2chen bjb2chen      91560 May 27 19:03 /localscratch/bjb2chen.29656358.0/FeCO_SPK_gmcpt_C1_17st_diab_0.05_-x5q15.F92.014
-rw-r-----. 1 bjb2chen bjb2chen      91560 May 27 19:03 /localscratch/bjb2chen.29656358.0/FeCO_SPK_gmcpt_C1_17st_diab_0.05_-x5q15.F92.015
-rw-r-----. 1 bjb2chen bjb2chen      64104 May 27 19:03 /localscratch/bjb2chen.29656358.0/FeCO_SPK_gmcpt_C1_17st_diab_0.05_-x5q15.F93
-rw-r-----. 1 bjb2chen bjb2chen      64104 May 27 19:03 /localscratch/bjb2chen.29656358.0/FeCO_SPK_gmcpt_C1_17st_diab_0.05_-x5q15.F93.001
-rw-r-----. 1 bjb2chen bjb2chen      64104 May 27 19:03 /localscratch/bjb2chen.29656358.0/FeCO_SPK_gmcpt_C1_17st_diab_0.05_-x5q15.F93.002
-rw-r-----. 1 bjb2chen bjb2chen      64104 May 27 19:03 /localscratch/bjb2chen.29656358.0/FeCO_SPK_gmcpt_C1_17st_diab_0.05_-x5q15.F93.003
-rw-r-----. 1 bjb2chen bjb2chen      64104 May 27 19:03 /localscratch/bjb2chen.29656358.0/FeCO_SPK_gmcpt_C1_17st_diab_0.05_-x5q15.F93.004
-rw-r-----. 1 bjb2chen bjb2chen      64104 May 27 19:03 /localscratch/bjb2chen.29656358.0/FeCO_SPK_gmcpt_C1_17st_diab_0.05_-x5q15.F93.005
-rw-r-----. 1 bjb2chen bjb2chen      64104 May 27 19:03 /localscratch/bjb2chen.29656358.0/FeCO_SPK_gmcpt_C1_17st_diab_0.05_-x5q15.F93.006
-rw-r-----. 1 bjb2chen bjb2chen      64104 May 27 19:03 /localscratch/bjb2chen.29656358.0/FeCO_SPK_gmcpt_C1_17st_diab_0.05_-x5q15.F93.007
-rw-r-----. 1 bjb2chen bjb2chen      64104 May 27 19:03 /localscratch/bjb2chen.29656358.0/FeCO_SPK_gmcpt_C1_17st_diab_0.05_-x5q15.F93.008
-rw-r-----. 1 bjb2chen bjb2chen      64104 May 27 19:03 /localscratch/bjb2chen.29656358.0/FeCO_SPK_gmcpt_C1_17st_diab_0.05_-x5q15.F93.009
-rw-r-----. 1 bjb2chen bjb2chen      64104 May 27 19:03 /localscratch/bjb2chen.29656358.0/FeCO_SPK_gmcpt_C1_17st_diab_0.05_-x5q15.F93.010
-rw-r-----. 1 bjb2chen bjb2chen      64104 May 27 19:03 /localscratch/bjb2chen.29656358.0/FeCO_SPK_gmcpt_C1_17st_diab_0.05_-x5q15.F93.011
-rw-r-----. 1 bjb2chen bjb2chen      64104 May 27 19:03 /localscratch/bjb2chen.29656358.0/FeCO_SPK_gmcpt_C1_17st_diab_0.05_-x5q15.F93.012
-rw-r-----. 1 bjb2chen bjb2chen      64104 May 27 19:03 /localscratch/bjb2chen.29656358.0/FeCO_SPK_gmcpt_C1_17st_diab_0.05_-x5q15.F93.013
-rw-r-----. 1 bjb2chen bjb2chen      64104 May 27 19:03 /localscratch/bjb2chen.29656358.0/FeCO_SPK_gmcpt_C1_17st_diab_0.05_-x5q15.F93.014
-rw-r-----. 1 bjb2chen bjb2chen      64104 May 27 19:03 /localscratch/bjb2chen.29656358.0/FeCO_SPK_gmcpt_C1_17st_diab_0.05_-x5q15.F93.015
-rw-r-----. 1 bjb2chen bjb2chen      34984 May 27 19:03 /localscratch/bjb2chen.29656358.0/FeCO_SPK_gmcpt_C1_17st_diab_0.05_-x5q15.F94
-rw-r-----. 1 bjb2chen bjb2chen      34984 May 27 19:03 /localscratch/bjb2chen.29656358.0/FeCO_SPK_gmcpt_C1_17st_diab_0.05_-x5q15.F94.001
-rw-r-----. 1 bjb2chen bjb2chen      34984 May 27 19:03 /localscratch/bjb2chen.29656358.0/FeCO_SPK_gmcpt_C1_17st_diab_0.05_-x5q15.F94.002
-rw-r-----. 1 bjb2chen bjb2chen      34984 May 27 19:03 /localscratch/bjb2chen.29656358.0/FeCO_SPK_gmcpt_C1_17st_diab_0.05_-x5q15.F94.003
-rw-r-----. 1 bjb2chen bjb2chen      34984 May 27 19:03 /localscratch/bjb2chen.29656358.0/FeCO_SPK_gmcpt_C1_17st_diab_0.05_-x5q15.F94.004
-rw-r-----. 1 bjb2chen bjb2chen      34984 May 27 19:03 /localscratch/bjb2chen.29656358.0/FeCO_SPK_gmcpt_C1_17st_diab_0.05_-x5q15.F94.005
-rw-r-----. 1 bjb2chen bjb2chen      34984 May 27 19:03 /localscratch/bjb2chen.29656358.0/FeCO_SPK_gmcpt_C1_17st_diab_0.05_-x5q15.F94.006
-rw-r-----. 1 bjb2chen bjb2chen      34984 May 27 19:03 /localscratch/bjb2chen.29656358.0/FeCO_SPK_gmcpt_C1_17st_diab_0.05_-x5q15.F94.007
-rw-r-----. 1 bjb2chen bjb2chen      34984 May 27 19:03 /localscratch/bjb2chen.29656358.0/FeCO_SPK_gmcpt_C1_17st_diab_0.05_-x5q15.F94.008
-rw-r-----. 1 bjb2chen bjb2chen      34984 May 27 19:03 /localscratch/bjb2chen.29656358.0/FeCO_SPK_gmcpt_C1_17st_diab_0.05_-x5q15.F94.009
-rw-r-----. 1 bjb2chen bjb2chen      34984 May 27 19:03 /localscratch/bjb2chen.29656358.0/FeCO_SPK_gmcpt_C1_17st_diab_0.05_-x5q15.F94.010
-rw-r-----. 1 bjb2chen bjb2chen      34984 May 27 19:03 /localscratch/bjb2chen.29656358.0/FeCO_SPK_gmcpt_C1_17st_diab_0.05_-x5q15.F94.011
-rw-r-----. 1 bjb2chen bjb2chen      34984 May 27 19:03 /localscratch/bjb2chen.29656358.0/FeCO_SPK_gmcpt_C1_17st_diab_0.05_-x5q15.F94.012
-rw-r-----. 1 bjb2chen bjb2chen      34984 May 27 19:03 /localscratch/bjb2chen.29656358.0/FeCO_SPK_gmcpt_C1_17st_diab_0.05_-x5q15.F94.013
-rw-r-----. 1 bjb2chen bjb2chen      34984 May 27 19:03 /localscratch/bjb2chen.29656358.0/FeCO_SPK_gmcpt_C1_17st_diab_0.05_-x5q15.F94.014
-rw-r-----. 1 bjb2chen bjb2chen      34984 May 27 19:03 /localscratch/bjb2chen.29656358.0/FeCO_SPK_gmcpt_C1_17st_diab_0.05_-x5q15.F94.015
-rw-r-----. 1 bjb2chen bjb2chen      14600 May 27 19:03 /localscratch/bjb2chen.29656358.0/FeCO_SPK_gmcpt_C1_17st_diab_0.05_-x5q15.F95
-rw-r-----. 1 bjb2chen bjb2chen      14600 May 27 19:03 /localscratch/bjb2chen.29656358.0/FeCO_SPK_gmcpt_C1_17st_diab_0.05_-x5q15.F95.001
-rw-r-----. 1 bjb2chen bjb2chen      14600 May 27 19:03 /localscratch/bjb2chen.29656358.0/FeCO_SPK_gmcpt_C1_17st_diab_0.05_-x5q15.F95.002
-rw-r-----. 1 bjb2chen bjb2chen      14600 May 27 19:03 /localscratch/bjb2chen.29656358.0/FeCO_SPK_gmcpt_C1_17st_diab_0.05_-x5q15.F95.003
-rw-r-----. 1 bjb2chen bjb2chen      14600 May 27 19:03 /localscratch/bjb2chen.29656358.0/FeCO_SPK_gmcpt_C1_17st_diab_0.05_-x5q15.F95.004
-rw-r-----. 1 bjb2chen bjb2chen      14600 May 27 19:03 /localscratch/bjb2chen.29656358.0/FeCO_SPK_gmcpt_C1_17st_diab_0.05_-x5q15.F95.005
-rw-r-----. 1 bjb2chen bjb2chen      14600 May 27 19:03 /localscratch/bjb2chen.29656358.0/FeCO_SPK_gmcpt_C1_17st_diab_0.05_-x5q15.F95.006
-rw-r-----. 1 bjb2chen bjb2chen      14600 May 27 19:03 /localscratch/bjb2chen.29656358.0/FeCO_SPK_gmcpt_C1_17st_diab_0.05_-x5q15.F95.007
-rw-r-----. 1 bjb2chen bjb2chen      14600 May 27 19:03 /localscratch/bjb2chen.29656358.0/FeCO_SPK_gmcpt_C1_17st_diab_0.05_-x5q15.F95.008
-rw-r-----. 1 bjb2chen bjb2chen      14600 May 27 19:03 /localscratch/bjb2chen.29656358.0/FeCO_SPK_gmcpt_C1_17st_diab_0.05_-x5q15.F95.009
-rw-r-----. 1 bjb2chen bjb2chen      14600 May 27 19:03 /localscratch/bjb2chen.29656358.0/FeCO_SPK_gmcpt_C1_17st_diab_0.05_-x5q15.F95.010
-rw-r-----. 1 bjb2chen bjb2chen      14600 May 27 19:03 /localscratch/bjb2chen.29656358.0/FeCO_SPK_gmcpt_C1_17st_diab_0.05_-x5q15.F95.011
-rw-r-----. 1 bjb2chen bjb2chen      14600 May 27 19:03 /localscratch/bjb2chen.29656358.0/FeCO_SPK_gmcpt_C1_17st_diab_0.05_-x5q15.F95.012
-rw-r-----. 1 bjb2chen bjb2chen      14600 May 27 19:03 /localscratch/bjb2chen.29656358.0/FeCO_SPK_gmcpt_C1_17st_diab_0.05_-x5q15.F95.013
-rw-r-----. 1 bjb2chen bjb2chen      14600 May 27 19:03 /localscratch/bjb2chen.29656358.0/FeCO_SPK_gmcpt_C1_17st_diab_0.05_-x5q15.F95.014
-rw-r-----. 1 bjb2chen bjb2chen      14600 May 27 19:03 /localscratch/bjb2chen.29656358.0/FeCO_SPK_gmcpt_C1_17st_diab_0.05_-x5q15.F95.015
-rw-r-----. 1 bjb2chen bjb2chen    1089240 May 27 22:53 /localscratch/bjb2chen.29656358.0/FeCO_SPK_gmcpt_C1_17st_diab_0.05_-x5q15.F96
-rw-r-----. 1 bjb2chen bjb2chen    1089240 May 27 22:53 /localscratch/bjb2chen.29656358.0/FeCO_SPK_gmcpt_C1_17st_diab_0.05_-x5q15.F96.001
-rw-r-----. 1 bjb2chen bjb2chen    1089240 May 27 22:53 /localscratch/bjb2chen.29656358.0/FeCO_SPK_gmcpt_C1_17st_diab_0.05_-x5q15.F96.002
-rw-r-----. 1 bjb2chen bjb2chen    1089240 May 27 22:53 /localscratch/bjb2chen.29656358.0/FeCO_SPK_gmcpt_C1_17st_diab_0.05_-x5q15.F96.003
-rw-r-----. 1 bjb2chen bjb2chen    1089240 May 27 22:53 /localscratch/bjb2chen.29656358.0/FeCO_SPK_gmcpt_C1_17st_diab_0.05_-x5q15.F96.004
-rw-r-----. 1 bjb2chen bjb2chen    1089240 May 27 22:53 /localscratch/bjb2chen.29656358.0/FeCO_SPK_gmcpt_C1_17st_diab_0.05_-x5q15.F96.005
-rw-r-----. 1 bjb2chen bjb2chen    1089240 May 27 22:53 /localscratch/bjb2chen.29656358.0/FeCO_SPK_gmcpt_C1_17st_diab_0.05_-x5q15.F96.006
-rw-r-----. 1 bjb2chen bjb2chen    1089240 May 27 22:53 /localscratch/bjb2chen.29656358.0/FeCO_SPK_gmcpt_C1_17st_diab_0.05_-x5q15.F96.007
-rw-r-----. 1 bjb2chen bjb2chen    1089240 May 27 22:53 /localscratch/bjb2chen.29656358.0/FeCO_SPK_gmcpt_C1_17st_diab_0.05_-x5q15.F96.008
-rw-r-----. 1 bjb2chen bjb2chen    1089240 May 27 22:53 /localscratch/bjb2chen.29656358.0/FeCO_SPK_gmcpt_C1_17st_diab_0.05_-x5q15.F96.009
-rw-r-----. 1 bjb2chen bjb2chen    1089240 May 27 22:53 /localscratch/bjb2chen.29656358.0/FeCO_SPK_gmcpt_C1_17st_diab_0.05_-x5q15.F96.010
-rw-r-----. 1 bjb2chen bjb2chen    1089240 May 27 22:53 /localscratch/bjb2chen.29656358.0/FeCO_SPK_gmcpt_C1_17st_diab_0.05_-x5q15.F96.011
-rw-r-----. 1 bjb2chen bjb2chen    1089240 May 27 22:53 /localscratch/bjb2chen.29656358.0/FeCO_SPK_gmcpt_C1_17st_diab_0.05_-x5q15.F96.012
-rw-r-----. 1 bjb2chen bjb2chen    1089240 May 27 22:53 /localscratch/bjb2chen.29656358.0/FeCO_SPK_gmcpt_C1_17st_diab_0.05_-x5q15.F96.013
-rw-r-----. 1 bjb2chen bjb2chen    1089240 May 27 22:53 /localscratch/bjb2chen.29656358.0/FeCO_SPK_gmcpt_C1_17st_diab_0.05_-x5q15.F96.014
-rw-r-----. 1 bjb2chen bjb2chen    1089240 May 27 22:53 /localscratch/bjb2chen.29656358.0/FeCO_SPK_gmcpt_C1_17st_diab_0.05_-x5q15.F96.015
-rw-r-----. 1 bjb2chen bjb2chen       1544 May 27 18:46 /localscratch/bjb2chen.29656358.0/FeCO_SPK_gmcpt_C1_17st_diab_0.05_-x5q15.F97
-rw-r-----. 1 bjb2chen bjb2chen       1544 May 27 18:46 /localscratch/bjb2chen.29656358.0/FeCO_SPK_gmcpt_C1_17st_diab_0.05_-x5q15.F97.001
-rw-r-----. 1 bjb2chen bjb2chen       1544 May 27 18:46 /localscratch/bjb2chen.29656358.0/FeCO_SPK_gmcpt_C1_17st_diab_0.05_-x5q15.F97.002
-rw-r-----. 1 bjb2chen bjb2chen       1544 May 27 18:46 /localscratch/bjb2chen.29656358.0/FeCO_SPK_gmcpt_C1_17st_diab_0.05_-x5q15.F97.003
-rw-r-----. 1 bjb2chen bjb2chen       1544 May 27 18:46 /localscratch/bjb2chen.29656358.0/FeCO_SPK_gmcpt_C1_17st_diab_0.05_-x5q15.F97.004
-rw-r-----. 1 bjb2chen bjb2chen       1544 May 27 18:46 /localscratch/bjb2chen.29656358.0/FeCO_SPK_gmcpt_C1_17st_diab_0.05_-x5q15.F97.005
-rw-r-----. 1 bjb2chen bjb2chen       1544 May 27 18:46 /localscratch/bjb2chen.29656358.0/FeCO_SPK_gmcpt_C1_17st_diab_0.05_-x5q15.F97.006
-rw-r-----. 1 bjb2chen bjb2chen       1544 May 27 18:46 /localscratch/bjb2chen.29656358.0/FeCO_SPK_gmcpt_C1_17st_diab_0.05_-x5q15.F97.007
-rw-r-----. 1 bjb2chen bjb2chen       1544 May 27 18:46 /localscratch/bjb2chen.29656358.0/FeCO_SPK_gmcpt_C1_17st_diab_0.05_-x5q15.F97.008
-rw-r-----. 1 bjb2chen bjb2chen       1544 May 27 18:46 /localscratch/bjb2chen.29656358.0/FeCO_SPK_gmcpt_C1_17st_diab_0.05_-x5q15.F97.009
-rw-r-----. 1 bjb2chen bjb2chen       1544 May 27 18:46 /localscratch/bjb2chen.29656358.0/FeCO_SPK_gmcpt_C1_17st_diab_0.05_-x5q15.F97.010
-rw-r-----. 1 bjb2chen bjb2chen       1544 May 27 18:46 /localscratch/bjb2chen.29656358.0/FeCO_SPK_gmcpt_C1_17st_diab_0.05_-x5q15.F97.011
-rw-r-----. 1 bjb2chen bjb2chen       1544 May 27 18:46 /localscratch/bjb2chen.29656358.0/FeCO_SPK_gmcpt_C1_17st_diab_0.05_-x5q15.F97.012
-rw-r-----. 1 bjb2chen bjb2chen       1544 May 27 18:46 /localscratch/bjb2chen.29656358.0/FeCO_SPK_gmcpt_C1_17st_diab_0.05_-x5q15.F97.013
-rw-r-----. 1 bjb2chen bjb2chen       1544 May 27 18:46 /localscratch/bjb2chen.29656358.0/FeCO_SPK_gmcpt_C1_17st_diab_0.05_-x5q15.F97.014
-rw-r-----. 1 bjb2chen bjb2chen       1544 May 27 18:46 /localscratch/bjb2chen.29656358.0/FeCO_SPK_gmcpt_C1_17st_diab_0.05_-x5q15.F97.015
-rw-r-----. 1 bjb2chen bjb2chen      64072 May 27 18:46 /localscratch/bjb2chen.29656358.0/FeCO_SPK_gmcpt_C1_17st_diab_0.05_-x5q15.F98
-rw-r-----. 1 bjb2chen bjb2chen      64072 May 27 18:46 /localscratch/bjb2chen.29656358.0/FeCO_SPK_gmcpt_C1_17st_diab_0.05_-x5q15.F98.001
-rw-r-----. 1 bjb2chen bjb2chen      64072 May 27 18:46 /localscratch/bjb2chen.29656358.0/FeCO_SPK_gmcpt_C1_17st_diab_0.05_-x5q15.F98.002
-rw-r-----. 1 bjb2chen bjb2chen      64072 May 27 18:46 /localscratch/bjb2chen.29656358.0/FeCO_SPK_gmcpt_C1_17st_diab_0.05_-x5q15.F98.003
-rw-r-----. 1 bjb2chen bjb2chen      64072 May 27 18:46 /localscratch/bjb2chen.29656358.0/FeCO_SPK_gmcpt_C1_17st_diab_0.05_-x5q15.F98.004
-rw-r-----. 1 bjb2chen bjb2chen      64072 May 27 18:46 /localscratch/bjb2chen.29656358.0/FeCO_SPK_gmcpt_C1_17st_diab_0.05_-x5q15.F98.005
-rw-r-----. 1 bjb2chen bjb2chen      64072 May 27 18:46 /localscratch/bjb2chen.29656358.0/FeCO_SPK_gmcpt_C1_17st_diab_0.05_-x5q15.F98.006
-rw-r-----. 1 bjb2chen bjb2chen      64072 May 27 18:46 /localscratch/bjb2chen.29656358.0/FeCO_SPK_gmcpt_C1_17st_diab_0.05_-x5q15.F98.007
-rw-r-----. 1 bjb2chen bjb2chen      64072 May 27 18:46 /localscratch/bjb2chen.29656358.0/FeCO_SPK_gmcpt_C1_17st_diab_0.05_-x5q15.F98.008
-rw-r-----. 1 bjb2chen bjb2chen      64072 May 27 18:46 /localscratch/bjb2chen.29656358.0/FeCO_SPK_gmcpt_C1_17st_diab_0.05_-x5q15.F98.009
-rw-r-----. 1 bjb2chen bjb2chen      64072 May 27 18:46 /localscratch/bjb2chen.29656358.0/FeCO_SPK_gmcpt_C1_17st_diab_0.05_-x5q15.F98.010
-rw-r-----. 1 bjb2chen bjb2chen      64072 May 27 18:46 /localscratch/bjb2chen.29656358.0/FeCO_SPK_gmcpt_C1_17st_diab_0.05_-x5q15.F98.011
-rw-r-----. 1 bjb2chen bjb2chen      64072 May 27 18:46 /localscratch/bjb2chen.29656358.0/FeCO_SPK_gmcpt_C1_17st_diab_0.05_-x5q15.F98.012
-rw-r-----. 1 bjb2chen bjb2chen      64072 May 27 18:46 /localscratch/bjb2chen.29656358.0/FeCO_SPK_gmcpt_C1_17st_diab_0.05_-x5q15.F98.013
-rw-r-----. 1 bjb2chen bjb2chen      64072 May 27 18:46 /localscratch/bjb2chen.29656358.0/FeCO_SPK_gmcpt_C1_17st_diab_0.05_-x5q15.F98.014
-rw-r-----. 1 bjb2chen bjb2chen      64072 May 27 18:46 /localscratch/bjb2chen.29656358.0/FeCO_SPK_gmcpt_C1_17st_diab_0.05_-x5q15.F98.015
-rw-r-----. 1 bjb2chen bjb2chen     417112 May 27 18:46 /localscratch/bjb2chen.29656358.0/FeCO_SPK_gmcpt_C1_17st_diab_0.05_-x5q15.F99
-rw-r-----. 1 bjb2chen bjb2chen     417112 May 27 18:46 /localscratch/bjb2chen.29656358.0/FeCO_SPK_gmcpt_C1_17st_diab_0.05_-x5q15.F99.001
-rw-r-----. 1 bjb2chen bjb2chen     417112 May 27 18:46 /localscratch/bjb2chen.29656358.0/FeCO_SPK_gmcpt_C1_17st_diab_0.05_-x5q15.F99.002
-rw-r-----. 1 bjb2chen bjb2chen     417112 May 27 18:46 /localscratch/bjb2chen.29656358.0/FeCO_SPK_gmcpt_C1_17st_diab_0.05_-x5q15.F99.003
-rw-r-----. 1 bjb2chen bjb2chen     417112 May 27 18:46 /localscratch/bjb2chen.29656358.0/FeCO_SPK_gmcpt_C1_17st_diab_0.05_-x5q15.F99.004
-rw-r-----. 1 bjb2chen bjb2chen     417112 May 27 18:46 /localscratch/bjb2chen.29656358.0/FeCO_SPK_gmcpt_C1_17st_diab_0.05_-x5q15.F99.005
-rw-r-----. 1 bjb2chen bjb2chen     417112 May 27 18:46 /localscratch/bjb2chen.29656358.0/FeCO_SPK_gmcpt_C1_17st_diab_0.05_-x5q15.F99.006
-rw-r-----. 1 bjb2chen bjb2chen     417112 May 27 18:46 /localscratch/bjb2chen.29656358.0/FeCO_SPK_gmcpt_C1_17st_diab_0.05_-x5q15.F99.007
-rw-r-----. 1 bjb2chen bjb2chen     417112 May 27 18:46 /localscratch/bjb2chen.29656358.0/FeCO_SPK_gmcpt_C1_17st_diab_0.05_-x5q15.F99.008
-rw-r-----. 1 bjb2chen bjb2chen     417112 May 27 18:46 /localscratch/bjb2chen.29656358.0/FeCO_SPK_gmcpt_C1_17st_diab_0.05_-x5q15.F99.009
-rw-r-----. 1 bjb2chen bjb2chen     417112 May 27 18:46 /localscratch/bjb2chen.29656358.0/FeCO_SPK_gmcpt_C1_17st_diab_0.05_-x5q15.F99.010
-rw-r-----. 1 bjb2chen bjb2chen     417112 May 27 18:46 /localscratch/bjb2chen.29656358.0/FeCO_SPK_gmcpt_C1_17st_diab_0.05_-x5q15.F99.011
-rw-r-----. 1 bjb2chen bjb2chen     417112 May 27 18:46 /localscratch/bjb2chen.29656358.0/FeCO_SPK_gmcpt_C1_17st_diab_0.05_-x5q15.F99.012
-rw-r-----. 1 bjb2chen bjb2chen     417112 May 27 18:46 /localscratch/bjb2chen.29656358.0/FeCO_SPK_gmcpt_C1_17st_diab_0.05_-x5q15.F99.013
-rw-r-----. 1 bjb2chen bjb2chen     417112 May 27 18:46 /localscratch/bjb2chen.29656358.0/FeCO_SPK_gmcpt_C1_17st_diab_0.05_-x5q15.F99.014
-rw-r-----. 1 bjb2chen bjb2chen     417112 May 27 18:46 /localscratch/bjb2chen.29656358.0/FeCO_SPK_gmcpt_C1_17st_diab_0.05_-x5q15.F99.015
/localscratch/bjb2chen.29656358.0/FeCO_SPK_gmcpt_C1_17st_diab_0.05_-x5q15.lis: No space left on device.
mv: No match.
/localscratch/bjb2chen.29656358.0/FeCO_SPK_gmcpt_C1_17st_diab_0.05_-x5q15.lis: No space left on device.
mv: No match.
/localscratch/bjb2chen.29656358.0/FeCO_SPK_gmcpt_C1_17st_diab_0.05_-x5q15.lis: No space left on device.
mv: No match.
Mon 27 May 2024 11:04:39 PM EDT
0.570u 0.422s 7:57:07.35 0.0%	0+0k 18008+5433io 64pf+0w
