----- GAMESS execution script 'rungms' -----
This job is running on host cpu001
under operating system Linux at Thu 26 May 2022 01:12:57 AM EDT
Available scratch disk space (Kbyte units) at beginning of the job is
Filesystem     1K-blocks      Used Available Use% Mounted on
/dev/sdb1      960380628 221708808 689817360  25% /scratch
GAMESS temporary binary files will be written to /scratch/bjb2chen
GAMESS supplementary output files will be written to /home/bjb2chen/.gamess_ascii_files/266789
Copying input file h2ocat_cct_gmcpt_6o7e_C2vinC1_3st_dmo.inp to your run's scratch directory...
cp h2ocat_cct_gmcpt_6o7e_C2vinC1_3st_dmo.inp /scratch/bjb2chen/h2ocat_cct_gmcpt_6o7e_C2vinC1_3st_dmo.F05
unset echo
 
Assuming a single but multicore node.
 
/home/bjb2chen/gamess/ddikick.x /home/bjb2chen/gamess/gamess.00.x h2ocat_cct_gmcpt_6o7e_C2vinC1_3st_dmo -ddi 1 4 cpu001:cpus=4 -scr /scratch/bjb2chen

 Distributed Data Interface kickoff program.
 Initiating 4 compute processes on 1 nodes to run the following command:
 /home/bjb2chen/gamess/gamess.00.x h2ocat_cct_gmcpt_6o7e_C2vinC1_3st_dmo 

          ******************************************************
          *         GAMESS VERSION = 02 AUG 2018 (R2)         *
          *             FROM IOWA STATE UNIVERSITY             *
          * M.W.SCHMIDT, K.K.BALDRIDGE, J.A.BOATZ, S.T.ELBERT, *
          *   M.S.GORDON, J.H.JENSEN, S.KOSEKI, N.MATSUNAGA,   *
          *          K.A.NGUYEN, S.J.SU, T.L.WINDUS,           *
          *       TOGETHER WITH M.DUPUIS, J.A.MONTGOMERY       *
          *         J.COMPUT.CHEM.  14, 1347-1363(1993)        *
          **************** 64 BIT LINUX VERSION ****************

  SINCE 1993, STUDENTS AND POSTDOCS WORKING AT IOWA STATE UNIVERSITY
  AND ALSO IN THEIR VARIOUS JOBS AFTER LEAVING ISU HAVE MADE IMPORTANT
  CONTRIBUTIONS TO THE CODE:
     IVANA ADAMOVIC, CHRISTINE AIKENS, YURI ALEXEEV, POOJA ARORA,
     ANDREY ASADCHEV, ROB BELL, PRADIPTA BANDYOPADHYAY, JONATHAN BENTZ,
     BRETT BODE, KURT BRORSEN, CALEB CARLIN, GALINA CHABAN, WEI CHEN,
     CHEOL HO CHOI, PAUL DAY, ALBERT DEFUSCO, NUWAN DESILVA, TIM DUDLEY,
     DMITRI FEDOROV, ALEX FINDLATER, GRAHAM FLETCHER, MARK FREITAG,
     KURT GLAESEMANN, ANASTASIA GUININA,
     DAN KEMP, GRANT MERRILL, NORIYUKI MINEZAWA, JONATHAN MULLIN,
     TAKESHI NAGATA, SEAN NEDD, HEATHER NETZLOFF, BOSILJKA NJEGIC, RYAN OLSON,
     MIKE PAK, BUU PHAM,
     SPENCER PRUITT, LUKE ROSKOP, JIM SHOEMAKER, LYUDMILA SLIPCHENKO,
     TONY SMITH, SAROM SOK LEANG, JIE SONG, TETSUYA TAKETSUGU, SIMON WEBB,
     PENG XU, SOOHAENG YOO, FEDERICO ZAHARIEV

  ADDITIONAL CODE HAS BEEN PROVIDED BY COLLABORATORS IN OTHER GROUPS:
     IOWA STATE UNIVERSITY:
          JOE IVANIC, AARON WEST, LAIMUTIS BYTAUTAS, KLAUS RUEDENBERG
     UNIVERSITY OF TOKYO: KIMIHIKO HIRAO, TAKAHITO NAKAJIMA,
          TAKAO TSUNEDA, MUNEAKI KAMIYA, SUSUMU YANAGISAWA,
          KIYOSHI YAGI, MAHITO CHIBA, SEIKEN TOKURA, NAOAKI KAWAKAMI
     UNIVERSITY OF AARHUS: FRANK JENSEN
     UNIVERSITY OF IOWA: VISVALDAS KAIRYS, HUI LI
     NATIONAL INST. OF STANDARDS AND TECHNOLOGY: WALT STEVENS, DAVID GARMER
     UNIVERSITY OF PISA: BENEDETTA MENNUCCI, JACOPO TOMASI
     UNIVERSITY OF MEMPHIS: HENRY KURTZ, PRAKASHAN KORAMBATH
     UNIVERSITY OF ALBERTA: TOBY ZENG, MARIUSZ KLOBUKOWSKI
     UNIVERSITY OF NEW ENGLAND: MARK SPACKMAN
     MIE UNIVERSITY: HIROAKI UMEDA
     NAT. INST. OF ADVANCED INDUSTRIAL SCIENCE AND TECHNOLOGY: KAZUO KITAURA
     MICHIGAN STATE UNIVERSITY:
          KAROL KOWALSKI, MARTA WLOCH, JEFFREY GOUR, JESSE LUTZ,
          WEI LI, JUN SHEN, J. EMILIANO DEUSTUA, PIOTR PIECUCH
     UNIVERSITY OF MINNESOTA:
          YINAN SHU
     UNIVERSITY OF SILESIA: MONIKA MUSIAL, STANISLAW KUCHARSKI
     FACULTES UNIVERSITAIRES NOTRE-DAME DE LA PAIX:
          OLIVIER QUINET, BENOIT CHAMPAGNE
     UNIVERSITY OF CALIFORNIA - SANTA BARBARA: BERNARD KIRTMAN
     INSTITUTE FOR MOLECULAR SCIENCE:
          KAZUYA ISHIMURA, MICHIO KATOUDA, AND SHIGERU NAGASE
     UNIVERSITY OF NOTRE DAME: ANNA POMOGAEVA, DAN CHIPMAN
     KYUSHU UNIVERSITY:
          HARUYUKI NAKANO,
          FENG LONG GU, JACEK KORCHOWIEC, MARCIN MAKOWSKI, AND YURIKO AOKI,
          HIROTOSHI MORI AND EISAKU MIYOSHI
     PENNSYLVANIA STATE UNIVERSITY:
          TZVETELIN IORDANOV, CHET SWALINA, JONATHAN SKONE,
          SHARON HAMMES-SCHIFFER
     WASEDA UNIVERSITY:
          MASATO KOBAYASHI, TOMOKO AKAMA, TSUGUKI TOUMA,
          TAKESHI YOSHIKAWA, YASUHIRO IKABATA, JUNJI SEINO,
          YUYA NAKAJIMA, HIROMI NAKAI
     NANJING UNIVERSITY: SHUHUA LI
     UNIVERSITY OF NEBRASKA:
          PEIFENG SU, DEJUN SI, NANDUN THELLAMUREGE, YALI WANG, HUI LI
     UNIVERSITY OF ZURICH: ROBERTO PEVERATI, KIM BALDRIDGE
     N. COPERNICUS UNIVERSITY AND JACKSON STATE UNIVERSITY:
          MARIA BARYSZ
     UNIVERSITY OF COPENHAGEN: Jimmy Kromann, CASPER STEINMANN
     TOKYO INSTITUTE OF TECHNOLOGY: HIROYA NAKATA
     NAGOYA UNIVERSITY: YOSHIO NISHIMOTO, STEPHAN IRLE
     MOSCOW STATE UNIVERSITY: VLADIMIR MIRONOV


 PARALLEL VERSION RUNNING ON        4 PROCESSORS IN        1 NODES.

 EXECUTION OF GAMESS BEGUN Thu May 26 01:12:57 2022

            ECHO OF THE FIRST FEW INPUT CARDS -
 INPUT CARD> !Step 3: single point gmcpt calculation averaging 3 states                     
 INPUT CARD> !        for H2O+ at H2O structure. The RHF orbitals at                        
 INPUT CARD> !        the MP2 optimized structure is taken as the initial                   
 INPUT CARD> !        guess of orbitals in the $VEC group. 3 states are asked               
 INPUT CARD> !        for because States 4 and 5 are 14 eV high. So far                     
 INPUT CARD> !        everyting is identical to Step 2. Now, something new.                 
 INPUT CARD> !        I added a $DMO group int the end to ask gamess to                     
 INPUT CARD> !        express the adiabatic states using those diabatic MOs.                
 INPUT CARD> !        The DMOs are just taken from the canonical MOs in                     
 INPUT CARD> !        Step 2. They are Orbitals 2-7 under the heading of                    
 INPUT CARD> !        "Semi-canonical MOs" in the                                           
 INPUT CARD> !        h2ocat_cct_gmcpt_6o7e_C2vinC1_3st.dat file. The DMO                   
 INPUT CARD> !        indices have to start from 1. I just changed 2-7 to                   
 INPUT CARD> !        1-6.                                                                  
 INPUT CARD> $system kdiag=3 mwords=100 memddi=1000 parall=.t. $end                         
 INPUT CARD> $contrl runtyp=energy ispher=1 $end                                            
 INPUT CARD> $contrl icut=9 itol=20 inttyp=rysquad qmttol=1.0d-05 nosym=1 $end              
 INPUT CARD> $scf    npunch=2 conv=1.0d-06 dirscf=.t.      $end                             
 INPUT CARD> $contrl scftyp=mcscf  mult=2 maxit=200 icharg=1 mplevl=2 $end                  
 INPUT CARD> $guess  guess=moread norb=58 purify=.t. $end                                   
 INPUT CARD> $basis  gbasis=cct $end                                                        
 INPUT CARD> $mcscf  cistep=gmcci fullnr=.t. finci=mos                                      
 INPUT CARD>         acurcy=1.d-6 maxit=100 $end                                            
 INPUT CARD> $trans  dirtrf=.t. $end                                                        
 INPUT CARD> $mrmp   mrpt=gmcpt rdvecs=.f. $end                                             
 INPUT CARD> $gmcpt  nmofzc=0 nmodoc=1 nmoact=6 nelact=7 stsym(1)=A                         
 INPUT CARD>         reftyp=ormas nspace=1 mstart(1)=2 mine(1)=7 maxe(1)=7                  
 INPUT CARD>         kstate(1)=1,1,1                                                        
 INPUT CARD>         wstate(1)=1,1,1                                                        
 INPUT CARD>         iwgt=0 thrwgt=-1.0 krot=.f. kszdoe=.f. knospn=.f.                      
 INPUT CARD>         thrde=-1.0 edshft=0.02 $end                                            
 INPUT CARD> $data                                                                          
 INPUT CARD> H2O+ 5 states calculation at H2O structure.                                    
 INPUT CARD> c1                                                                             
 INPUT CARD> O           8.0   0.0000000000   0.0000000000  -0.2624774504                   
 INPUT CARD> H           1.0  -0.7532437773   0.0000000000   0.3312387252                   
 INPUT CARD> H           1.0   0.7532437773   0.0000000000   0.3312387252                   
 INPUT CARD> $end                                                                           
 INPUT CARD>--- OPTIMIZED RHF      MO-S --- GENERATED AT Wed May 25 12:32:31 2022           
 INPUT CARD>E=      -76.3186577307, E(NUC)=    9.1791516524                                 
 INPUT CARD> $VEC                                                                           
 INPUT CARD> 1  1 9.75874809E-01-6.05654872E-04 4.35010822E-02 1.21145667E-03 0.00000000E+00
 INPUT CARD> 1  2 0.00000000E+00 1.90103403E-03 0.00000000E+00 0.00000000E+00-1.49902877E-03
 INPUT CARD> 1  3 0.00000000E+00 0.00000000E+00-1.49092933E-04 2.68886215E-05-5.11901877E-05
 INPUT CARD> 1  4 2.43015662E-05 0.00000000E+00 0.00000000E+00 0.00000000E+00-3.31676204E-04
 INPUT CARD> 1  5 5.15346986E-04-1.83670782E-04 0.00000000E+00 0.00000000E+00 0.00000000E+00
 INPUT CARD> 1  6 0.00000000E+00 0.00000000E+00 4.90726218E-06 0.00000000E+00-8.80538923E-05
 INPUT CARD> 1  7 0.00000000E+00 8.14701092E-05 0.00000000E+00 0.00000000E+00 0.00000000E+00
 INPUT CARD> 1  8 5.05356859E-04 9.99164403E-04-2.52939156E-04 2.39105255E-04 0.00000000E+00
 INPUT CARD> 1  9-1.29241437E-04 4.44863967E-04 0.00000000E+00-3.06638408E-04 2.02896045E-05
  100000000 WORDS OF MEMORY AVAILABLE

     BASIS OPTIONS
     -------------
     GBASIS=CCT          IGAUSS=       0      POLAR=NONE    
     NDFUNC=       0     NFFUNC=       0     DIFFSP=       F
     NPFUNC=       0      DIFFS=       F     BASNAM=        


     RUN TITLE
     ---------
  H2O+ 5 states calculation at H2O structure.                                    

 THE POINT GROUP OF THE MOLECULE IS C1      
 THE ORDER OF THE PRINCIPAL AXIS IS     0

 ATOM      ATOMIC                      COORDINATES (BOHR)
           CHARGE         X                   Y                   Z
 O           8.0     0.0000000000        0.0000000000       -0.4960104592
 H           1.0    -1.4234243411        0.0000000000        0.6259504272
 H           1.0     1.4234243411        0.0000000000        0.6259504272

          INTERNUCLEAR DISTANCES (ANGS.)
          ------------------------------

                1 O          2 H          3 H     

   1 O       0.0000000    0.9591012 *  0.9591012 *
   2 H       0.9591012 *  0.0000000    1.5064876 *
   3 H       0.9591012 *  1.5064876 *  0.0000000  

  * ... LESS THAN  3.000


     ATOMIC BASIS SET
     ----------------
 THE CONTRACTED PRIMITIVE FUNCTIONS HAVE BEEN UNNORMALIZED
 THE CONTRACTED BASIS FUNCTIONS ARE NOW NORMALIZED TO UNITY

  SHELL TYPE  PRIMITIVE        EXPONENT          CONTRACTION COEFFICIENT(S)

 O         

      1   S       1         15330.0000000    0.000520198307
      1   S       2          2299.0000000    0.004023344781
      1   S       3           522.4000000    0.020729083329
      1   S       4           147.3000000    0.081082327080
      1   S       5            47.5500000    0.236226352118
      1   S       6            16.7600000    0.443518209420
      1   S       7             6.2070000    0.358670588689
      1   S       8             0.6882000   -0.008349797237

      2   S       9         15330.0000000   -0.000197236012
      2   S      10          2299.0000000   -0.001535010700
      2   S      11           522.4000000   -0.007951183914
      2   S      12           147.3000000   -0.032113452892
      2   S      13            47.5500000   -0.100269643049
      2   S      14            16.7600000   -0.234047111838
      2   S      15             6.2070000   -0.301410927756
      2   S      16             0.6882000    1.034919649508

      3   S      17             1.7520000    1.000000000000

      4   S      18             0.2384000    1.000000000000

      5   P      19            34.4600000    0.041163489568
      5   P      20             7.7490000    0.257762835858
      5   P      21             2.2800000    0.802419274427

      6   P      22             0.7156000    1.000000000000

      7   P      23             0.2140000    1.000000000000

      8   D      24             2.3140000    1.000000000000

      9   D      25             0.6450000    1.000000000000

     10   F      26             1.4280000    1.000000000000

 H         

     11   S      27            33.8700000    0.025494863235
     11   S      28             5.0950000    0.190362765893
     11   S      29             1.1590000    0.852162022245

     12   S      30             0.3258000    1.000000000000

     13   S      31             0.1027000    1.000000000000

     14   P      32             1.4070000    1.000000000000

     15   P      33             0.3880000    1.000000000000

     16   D      34             1.0570000    1.000000000000

 H         

     17   S      35            33.8700000    0.025494863235
     17   S      36             5.0950000    0.190362765893
     17   S      37             1.1590000    0.852162022245

     18   S      38             0.3258000    1.000000000000

     19   S      39             0.1027000    1.000000000000

     20   P      40             1.4070000    1.000000000000

     21   P      41             0.3880000    1.000000000000

     22   D      42             1.0570000    1.000000000000

 TOTAL NUMBER OF BASIS SET SHELLS             =   22
 NUMBER OF CARTESIAN GAUSSIAN BASIS FUNCTIONS =   65
 NOTE: THIS RUN WILL RESTRICT THE MO VARIATION SPACE TO SPHERICAL HARMONICS.
 THE NUMBER OF ORBITALS KEPT IN THE VARIATIONAL SPACE WILL BE PRINTED LATER.
 NUMBER OF ELECTRONS                          =    9
 CHARGE OF MOLECULE                           =    1
 SPIN MULTIPLICITY                            =    2
 NUMBER OF OCCUPIED ORBITALS (ALPHA)          =    5
 NUMBER OF OCCUPIED ORBITALS (BETA )          =    4
 TOTAL NUMBER OF ATOMS                        =    3
 THE NUCLEAR REPULSION ENERGY IS        9.1791516530

     $CONTRL OPTIONS
     ---------------
 SCFTYP=MCSCF        RUNTYP=ENERGY       EXETYP=RUN     
 MPLEVL=       2     CITYP =NONE         CCTYP =NONE         VBTYP =NONE    
 DFTTYP=NONE         TDDFT =NONE    
 MULT  =       2     ICHARG=       1     NZVAR =       0     COORD =UNIQUE  
 PP    =NONE         RELWFN=NONE         LOCAL =NONE         NUMGRD=       F
 ISPHER=       1     NOSYM =       1     MAXIT =     200     UNITS =ANGS    
 PLTORB=       F     MOLPLT=       F     AIMPAC=       F     FRIEND=        
 NPRINT=       7     IREST =       0     GEOM  =INPUT   
 NORMF =       0     NORMP =       0     ITOL  =      20     ICUT  =       9
 INTTYP=RYSQUAD      GRDTYP=BEST         QMTTOL= 1.0E-05

     $SYSTEM OPTIONS
     ---------------
  REPLICATED MEMORY=   100000000 WORDS (ON EVERY NODE).
 DISTRIBUTED MEMDDI=        1000 MILLION WORDS IN AGGREGATE,
 MEMDDI DISTRIBUTED OVER   4 PROCESSORS IS   250000000 WORDS/PROCESSOR.
 TOTAL MEMORY REQUESTED ON EACH PROCESSOR=   350000000 WORDS.
 TIMLIM=      525600.00 MINUTES, OR     365.0 DAYS.
 PARALL= T  BALTYP=  DLB     KDIAG=    3  COREFL= F
 MXSEQ2=     300 MXSEQ3=     150  mem10=         0

          ----------------
          PROPERTIES INPUT
          ----------------

     MOMENTS            FIELD           POTENTIAL          DENSITY
 IEMOM =       1   IEFLD =       0   IEPOT =       0   IEDEN =       0
 WHERE =COMASS     WHERE =NUCLEI     WHERE =NUCLEI     WHERE =NUCLEI  
 OUTPUT=BOTH       OUTPUT=BOTH       OUTPUT=BOTH       OUTPUT=BOTH    
 IEMINT=       0   IEFINT=       0                     IEDINT=       0
                                                       MORB  =       0

     -------------------------------
     INTEGRAL TRANSFORMATION OPTIONS
     -------------------------------
     NWORD  =            0
     CUTOFF = 1.0E-09     MPTRAN =       0
     DIRTRF =       T     AOINTS =DUP     

          ----------------------
          MCSCF INPUT PARAMETERS
          ----------------------
 CONVERGER SELECTION: FOCAS = F  SOSCF = F  FULLNR = T  QUD = F  JACOBI = F
 SECULAR EQUATION METHOD CISTEP = GMCCI   
 --- GENERAL INPUT OPTIONS:
 MAXIT =     100  MICIT =       1  ACURCY= 1.000E-06
 DAMP  =   0.000  CANONC=       T  ENGTOL= 1.000E-10
 EKT   =       F  NPUNCH=       2  NWORD =         0
 REGENERATE CI AFTER CONVERGENCE = NONE    
 DIABATIZATION AFTER CONVERGENCE =        F
 --- INPUT FOR FULLNR CONVERGER:
 METHOD=DM2       FORS  =       F  DROPC =       T
 LINSER=       F  FCORE =       F  NORB  =      65

          ----------------------
          INTEGRAL INPUT OPTIONS
          ----------------------
 NOPK  =       1 NORDER=       0 SCHWRZ=       T

 ------------------------------------------
 MULTIREFERENCE PERTURBATION THEORY CONTROL
 ------------------------------------------
 MRPT=GMCPT    READ CONVERGED MCSCF VECTORS= F


     ------------------------------------------
     THE POINT GROUP IS C1 , NAXIS= 1, ORDER= 1
     ------------------------------------------

 -- VARIATIONAL SPACE WILL BE RESTRICTED TO PURE SPHERICAL HARMONICS ONLY --
 AFTER EXCLUDING CONTAMINANT COMBINATIONS FROM THE CARTESIAN GAUSSIAN BASIS
 SET, THE NUMBER OF SPHERICAL HARMONICS KEPT IN THE VARIATION SPACE IS   58

     DIMENSIONS OF THE SYMMETRY SUBSPACES ARE
 A   =   58

 ..... DONE SETTING UP THE RUN .....
 CPU     0: STEP CPU TIME=     0.08 TOTAL CPU TIME=          0.1 (      0.0 MIN)
 TOTAL WALL CLOCK TIME=          0.1 SECONDS, CPU UTILIZATION IS   100.00%

          ********************
          1 ELECTRON INTEGRALS
          ********************
 TIME TO DO   DIPOLE INTEGRALS=      0.00
 ...... END OF ONE-ELECTRON INTEGRALS ......
 CPU     0: STEP CPU TIME=     0.00 TOTAL CPU TIME=          0.1 (      0.0 MIN)
 TOTAL WALL CLOCK TIME=          0.1 SECONDS, CPU UTILIZATION IS    88.89%

          -------------
          GUESS OPTIONS
          -------------
          GUESS =MOREAD            NORB  =      58          NORDER=       0
          MIX   =       F          PRTMO =       F          PUNMO =       F
          TOLZ  = 1.0E-08          TOLE  = 1.0E-05
          SYMDEN=       F          PURIFY=       T

 INITIAL GUESS ORBITALS GENERATED BY MOREAD   ROUTINE.

 STATISTICS FOR GENERATION OF SYMMETRY ORBITAL -Q- MATRIX
 NUMBER OF CARTESIAN ATOMIC ORBITALS=         65
 NUMBER OF SPHERICAL CONTAMINANTS DROPPED=     7
 NUMBER OF LINEARLY DEPENDENT MOS DROPPED=     0
 TOTAL NUMBER OF MOS IN VARIATION SPACE=      58
 ORBITAL PURIFICATION WILL OCCUR

 SYMMETRIES FOR INITIAL GUESS ORBITALS FOLLOW.   BOTH SET(S).
     5 ORBITALS ARE OCCUPIED (    1 CORE ORBITALS).
     1=A        2=A        3=A        4=A        5=A        6=A        7=A   
     8=A        9=A       10=A       11=A       12=A       13=A       14=A   
    15=A       16=A       17=A       18=A       19=A       20=A       21=A   
    22=A       23=A       24=A       25=A       26=A       27=A       28=A   
    29=A       30=A       31=A       32=A       33=A       34=A       35=A   
    36=A       37=A       38=A       39=A       40=A       41=A       42=A   
    43=A       44=A       45=A       46=A       47=A       48=A       49=A   
    50=A       51=A       52=A       53=A       54=A       55=A       56=A   
    57=A       58=A   
 ...... END OF INITIAL ORBITAL SELECTION ......
 CPU     0: STEP CPU TIME=     0.03 TOTAL CPU TIME=          0.1 (      0.0 MIN)
 TOTAL WALL CLOCK TIME=          0.1 SECONDS, CPU UTILIZATION IS    91.67%

                    ----------------------
                    AO INTEGRAL TECHNOLOGY
                    ----------------------
     S,P,L SHELL ROTATED AXIS INTEGRALS, REPROGRAMMED BY
        KAZUYA ISHIMURA (IMS) AND JOSE SIERRA (SYNSTAR).
     S,P,D,L SHELL ROTATED AXIS INTEGRALS PROGRAMMED BY
        KAZUYA ISHIMURA (INSTITUTE FOR MOLECULAR SCIENCE).
     S,P,D,F,G SHELL TO TOTAL QUARTET ANGULAR MOMENTUM SUM 5,
        ERIC PROGRAM BY GRAHAM FLETCHER (ELORET AND NASA ADVANCED
        SUPERCOMPUTING DIVISION, AMES RESEARCH CENTER).
     S,P,D,F,G,L SHELL GENERAL RYS QUADRATURE PROGRAMMED BY
        MICHEL DUPUIS (PACIFIC NORTHWEST NATIONAL LABORATORY).

          --------------------
          2 ELECTRON INTEGRALS
          --------------------

 DIRECT SCF METHOD SKIPS INTEGRAL STORAGE ON DISK.
 DIRECT TRANSFORMATION SKIPS AO INTEGRAL STORAGE ON DISK.
  ...... END OF TWO-ELECTRON INTEGRALS .....
 STEP CPU TIME =     0.02 TOTAL CPU TIME =          0.1 (      0.0 MIN)
 TOTAL WALL CLOCK TIME=          0.1 SECONDS, CPU UTILIZATION IS    92.86%
 DDI: Creating Array [0] - 4225 x 28 = 118300 words.
 DDI: Creating Array [1] - 51 x 196 = 9996 words.
 DDI: Creating Array [2] - 28 x 28 = 784 words.
 DDI: Creating Array [3] - 2145 x 28 = 60060 words.

          -----------------
          MCSCF CALCULATION
          -----------------

 ----- NUCLEAR ENERGY ----- =         9.1791516530

     -------------------------------------------------
     GMC-PT/GMC-QDPT or general MCSCF input parameters
     -------------------------------------------------
 # of frozen core orbs. =         0 ->         0
 # of doubly occ. orbs. =         1
 # of active      orbs. =         6
 # of virtual     orbs. =        51
 # of active electrons  =         7
 # of states in CI      =         3
 Highest state in CI    =         3
 kstate =  1 1 1
 avecoe =  0.333 0.333 0.333
 State symmetry           = A           
 Assigned symmetry number = 1

 <<<Act. MO sym.: 111111

 <<<Division of 1-ext.:  0 0 0 0
 <<<Division of 2-ext.:  0 1 2 3

 *** Reference space

 Reference type: ORMAS (= Occupation restricted multiple active space)
 # of orbitals          =  6
 # of minimum electrons =  7
 # of maximum electrons =  7
 State symmetry    =    1 (input)
 2*Sz              =    1 (input)
 Spin multiplicity =    2 (input)
 Dimension of reference space =       300  (from       792 walks)

 Dimension of reference space =       300  (from       300 walks)

 <<<Ionized spaces for Ref-CI:
      0:          300 /   -1-0:          625 /  0-1-0:          690

 EVALUATING EXCHANGE INTEGRALS FOR DIRECT INTEGRAL TRANSFORMATION
 SCHWARZ INEQUALITY OVERHEAD:      2145 INTEGRALS, T=        0.01

     --------------------------------------------
     PARTIAL TWO ELECTRON INTEGRAL TRANSFORMATION
     --------------------------------------------

 NUMBER OF CORE MOLECULAR ORBITALS     =    1
 NUMBER OF OCCUPIED MOLECULAR ORBITALS =    7
 TOTAL NUMBER OF MOLECULAR ORBITALS    =   58
 TOTAL NUMBER OF ATOMIC ORBITALS       =   65
 THRESHOLD FOR KEEPING TRANSFORMED 2E- INTEGRALS = 1.000E-09

 -------------------------------     ------------------------------
 DISTRIBUTED DATA TRANSFORMATION     PROGRAM WRITTEN BY G. FLETCHER
 -------------------------------     ------------------------------

 THE DISTRIBUTED MEMORY REQUIRED FOR THIS STEP IS MEMDDI=         1 MWORDS
 CREATING DISTRIBUTED STORAGE FOR [VIR OCC|VIR OCC] INTEGRALS
 CREATING DISTRIBUTED STORAGE FOR [VIR OCC|OCC OCC] INTEGRALS
 CREATING DISTRIBUTED STORAGE FOR [OCC OCC|OCC OCC] INTEGRALS
 CREATING DISTRIBUTED STORAGE FOR [VIR VIR|OCC OCC] INTEGRALS
 FOR    4 PROCESSORS, THE REPLICATED MEMORY NEEDED IS      163195 WORDS.
 SCHWARZ INEQUALITY OVERHEAD:      2145 INTEGRALS, T=        0.00

      DIRECT 4-INDEX TRANSFORMATION 
      SCHWARZ INEQUALITY TEST SKIPPED          0 INTEGRAL BLOCKS
 ----- FROZEN CORE ENERGY =       -61.3124120929
 ... END OF INTEGRAL TRANSFORMATION ...
 CPU     0: STEP CPU TIME=     0.43 TOTAL CPU TIME=          0.6 (      0.0 MIN)
 TOTAL WALL CLOCK TIME=          0.6 SECONDS, CPU UTILIZATION IS    98.25%

     --------------------------------     -----------------------------
     MCHF NEWTON-RAPHSON OPTIMIZATION     CODE WRITTEN BY MICHEL DUPUIS
     --------------------------------     -----------------------------
     PARALLEL VERSION WRITTEN BY G. FLETCHER (ELORET)
     NASA ADVANCED SUPERCOMPUTING DIVISION, AMES RESEARCH CENTER

 NUMBER OF INDEPENDENT ORBITAL ROTATION PARAMETERS =   119
 ..... DONE SOLVING NEWTON-RAPHSON EQUATIONS .....
 CPU     0: STEP CPU TIME=     0.14 TOTAL CPU TIME=          0.7 (      0.0 MIN)
 TOTAL WALL CLOCK TIME=          0.8 SECONDS, CPU UTILIZATION IS    88.61%
 ..... DONE WITH NTN-RPH ORBITAL ROTATIONS ..... 
 CPU     0: STEP CPU TIME=     0.00 TOTAL CPU TIME=          0.7 (      0.0 MIN)
 TOTAL WALL CLOCK TIME=          0.8 SECONDS, CPU UTILIZATION IS    87.50%
 MAXIMUM MEMORY USED BY NTN-RPH CODE WAS     79101 WORDS.

 ITER     TOTAL ENERGY      DEL(E)  LAGRANGIAN ASYMMETRY   SQCDF  MICIT   DAMP
   1      -75.485313608 -0.485313608  0.224990   11    5 1.958E-02  1   0.0000
   2      -75.542505725 -0.057192117  0.019159   11    5 5.000E-01  1   0.0000
   3      -75.559053651 -0.016547926  0.017904   13    3 3.705E-01  1   0.0032
   4      -75.579770332 -0.020716681  0.007784   36    3 9.268E-02  1   0.0032
   5      -75.584165669 -0.004395337  0.002947   37    4 2.532E-03  1   0.0000
   6      -75.584305727 -0.000140058  0.001330   37    4 2.095E-04  1   0.0000
   7      -75.584321411 -0.000015684  0.000544   37    4 3.731E-05  1   0.0000
   8      -75.584324175 -0.000002765  0.000222   37    4 7.664E-06  1   0.0000
   9      -75.584324717 -0.000000542  0.000093   37    4 1.703E-06  1   0.0000
  10      -75.584324832 -0.000000115  0.000040   37    4 3.951E-07  1   0.0000
  11      -75.584324858 -0.000000026  0.000017   37    4 9.370E-08  1   0.0000
  12      -75.584324864 -0.000000006  0.000008   37    4 2.243E-08  1   0.0000
  13      -75.584324865 -0.000000001  0.000004   37    4 5.393E-09  1   0.0000
  14      -75.584324866 -0.000000000  0.000002   37    4 1.294E-09  1   0.0000
  15      -75.584324866 -0.000000000  0.000001   37    4 3.111E-10  1   0.0000

          --------------------
          LAGRANGIAN CONVERGED
          --------------------

 FINAL MCSCF ENERGY IS      -75.5843248657 AFTER  15 ITERATIONS

 -MCCI- BASED ON OPTIMIZED ORBITALS
 ----------------------------------

 PLEASE NOTE: IF THE ACTIVE ORBITALS ARE CANONICALIZED BELOW,
 THE FOLLOWING CI EXPANSION COEFFICIENTS AND THE DENSITY DO NOT
 CORRESPOND TO THE PRINTED ORBITALS.  THE PRINTED EXPANSIONS MATCH
 THE ORBITALS USED DURING THE LAST ITERATION.  IF YOU WISH TO SEE
 CI EXPANSIONS BASED ON THE CANONICAL (OR NATURAL) ORBITALS, YOU
 MUST RUN A CI CALCULATION WITH THAT ORBITAL CHOICE READ IN $VEC.

 Averaged energy =     -75.584324866

 State #    1  Energy =     -75.700903091  S =  0.500

      Det      Coef    Occupancy (Ignoring core)
      ---      ----    --------- --------- -----
        1   -0.973581  111100111000
        3    0.067248  110110111000
        5    0.066944  011110111000
        8    0.116127  101101111000
       61   -0.060473  111100110010
      166   -0.092677  111100101001
      173   -0.061078  101101101001

 State #    2  Energy =     -75.605197057  S =  0.500

      Det      Coef    Occupancy (Ignoring core)
      ---      ----    --------- --------- -----
       16   -0.976868  111100110100
       18    0.076941  110110110100
       23    0.107634  101101110100
      121   -0.052258  111100010110
      196   -0.095445  111100100101
      203   -0.063182  101101100101

 State #    3  Energy =     -75.446874449  S =  0.500

      Det      Coef    Occupancy (Ignoring core)
      ---      ----    --------- --------- -----
       31    0.987222  111100101100
       38   -0.068352  101101101100
      136    0.053565  111100001110

 DENSITY MATRIX OVER ACTIVE MO-S

             1           2           3           4           5

    1    1.9869758
    2    0.0000000   1.6400736
    3    0.0044095  -0.0000000   1.6542995
    4   -0.0000000   0.0000000  -0.0000000   1.6657838
    5    0.0849019  -0.0000000   0.0773913  -0.0000000   0.0228645
    6    0.0000000  -0.1437217  -0.0000000   0.0000000   0.0000000

             6

    6    0.0300028

 FORMING THE "STANDARD FOCK OPERATOR" IN DIRECT AO INTEGRAL MODE...
 ONLY THE    1 CORE AND   51 VIRTUAL ORBITALS WILL BE CANONICALIZED

          ----------------------
          MCSCF NATURAL ORBITALS
          ----------------------

                      1          2          3          4          5
                  -21.0889     1.9908     1.6658     1.6578     1.6528
                     A          A          A          A          A   
    1  O  1  S    0.975798   0.006507  -0.000000  -0.010429   0.000000
    2  O  1  S   -0.005154   0.532131  -0.000000  -0.212860   0.000000
    3  O  1  S    0.042376   0.144075  -0.000000  -0.061583  -0.000000
    4  O  1  S   -0.000277   0.231141  -0.000000  -0.278308   0.000000
    5  O  1  X    0.000000   0.000000  -0.000000  -0.000000   0.316947
    6  O  1  Y    0.000000   0.000000   0.386542   0.000000  -0.000000
    7  O  1  Z    0.000966   0.060367  -0.000000   0.343416   0.000000
    8  O  1  X   -0.000000   0.000000  -0.000000  -0.000000   0.381005
    9  O  1  Y    0.000000   0.000000   0.499457   0.000000  -0.000000
   10  O  1  Z   -0.001728   0.075757  -0.000000   0.426115   0.000000
   11  O  1  X   -0.000000   0.000000  -0.000000  -0.000000   0.129594
   12  O  1  Y    0.000000   0.000000   0.280385   0.000000  -0.000000
   13  O  1  Z   -0.000137   0.014349  -0.000000   0.181972   0.000000
   14  O  1 XX    0.000015   0.003008  -0.000000  -0.000401  -0.000000
   15  O  1 YY   -0.000026  -0.004208  -0.000000  -0.005730  -0.000000
   16  O  1 ZZ    0.000011   0.001200  -0.000000   0.006131  -0.000000
   17  O  1 XY    0.000000   0.000000  -0.000000   0.000000  -0.000000
   18  O  1 XZ    0.000000   0.000000  -0.000000   0.000000   0.012680
   19  O  1 YZ    0.000000   0.000000   0.005505   0.000000  -0.000000
   20  O  1 XX   -0.000330   0.003763  -0.000000  -0.007364   0.000000
   21  O  1 YY    0.000473  -0.007892  -0.000000  -0.010392  -0.000000
   22  O  1 ZZ   -0.000143   0.004128  -0.000000   0.017757  -0.000000
   23  O  1 XY    0.000000   0.000000  -0.000000   0.000000  -0.000000
   24  O  1 XZ   -0.000000   0.000000  -0.000000   0.000000   0.023307
   25  O  1 YZ    0.000000   0.000000   0.018962   0.000000  -0.000000
   26  O  1 XXX   0.000000   0.000000  -0.000000   0.000000   0.002826
   27  O  1 YYY   0.000000   0.000000  -0.004207   0.000000  -0.000000
   28  O  1 ZZZ   0.000014  -0.000473  -0.000000   0.000378  -0.000000
   29  O  1 XXY   0.000000   0.000000   0.003915   0.000000  -0.000000
   30  O  1 XXZ  -0.000095   0.002412  -0.000000   0.003155   0.000000
   31  O  1 YYX   0.000000   0.000000  -0.000000   0.000000  -0.004067
   32  O  1 YYZ   0.000077  -0.001778  -0.000000  -0.003662  -0.000000
   33  O  1 ZZX   0.000000   0.000000  -0.000000   0.000000   0.000275
   34  O  1 ZZY   0.000000   0.000000   0.001728   0.000000  -0.000000
   35  O  1 XYZ   0.000000   0.000000  -0.000000   0.000000  -0.000000
   36  H  2  S   -0.000282   0.090549  -0.000000   0.083681  -0.141130
   37  H  2  S    0.000050   0.080290  -0.000000   0.152861  -0.207312
   38  H  2  S   -0.000253  -0.002861  -0.000000   0.012346  -0.009997
   39  H  2  X    0.000099   0.012217  -0.000000   0.009105  -0.010305
   40  H  2  Y    0.000000   0.000000   0.010655   0.000000  -0.000000
   41  H  2  Z   -0.000046  -0.008459  -0.000000   0.001652   0.013676
   42  H  2  X    0.000194   0.016250  -0.000000   0.034206  -0.025616
   43  H  2  Y    0.000000   0.000000   0.028384   0.000000  -0.000000
   44  H  2  Z   -0.000175  -0.008967  -0.000000   0.004481   0.027074
   45  H  2 XX   -0.000022   0.001916  -0.000000   0.004302  -0.001718
   46  H  2 YY    0.000059  -0.002038  -0.000000  -0.001318   0.003937
   47  H  2 ZZ   -0.000037   0.000122  -0.000000  -0.002984  -0.002219
   48  H  2 XY    0.000000   0.000000   0.004872   0.000000  -0.000000
   49  H  2 XZ    0.000144  -0.003232  -0.000000  -0.000043   0.005862
   50  H  2 YZ    0.000000   0.000000  -0.003418   0.000000  -0.000000
   51  H  3  S   -0.000282   0.090549  -0.000000   0.083681   0.141130
   52  H  3  S    0.000050   0.080290  -0.000000   0.152861   0.207312
   53  H  3  S   -0.000253  -0.002861  -0.000000   0.012346   0.009997
   54  H  3  X   -0.000099  -0.012217  -0.000000  -0.009105  -0.010305
   55  H  3  Y    0.000000   0.000000   0.010655   0.000000  -0.000000
   56  H  3  Z   -0.000046  -0.008459  -0.000000   0.001652  -0.013676
   57  H  3  X   -0.000194  -0.016250  -0.000000  -0.034206  -0.025616
   58  H  3  Y    0.000000   0.000000   0.028384   0.000000  -0.000000
   59  H  3  Z   -0.000175  -0.008967  -0.000000   0.004481  -0.027074
   60  H  3 XX   -0.000022   0.001916  -0.000000   0.004302   0.001718
   61  H  3 YY    0.000059  -0.002038  -0.000000  -0.001318  -0.003937
   62  H  3 ZZ   -0.000037   0.000122  -0.000000  -0.002984   0.002219
   63  H  3 XY    0.000000   0.000000  -0.004872   0.000000  -0.000000
   64  H  3 XZ   -0.000144   0.003232  -0.000000   0.000043   0.005862
   65  H  3 YZ    0.000000   0.000000  -0.003418   0.000000  -0.000000

                      6          7
                    0.0173     0.0156
                     A          A   
    1  O  1  S   -0.000000  -0.048824
    2  O  1  S   -0.000000  -0.490822
    3  O  1  S    0.000000  -0.276795
    4  O  1  S   -0.000000  -0.366490
    5  O  1  X    0.531777  -0.000000
    6  O  1  Y   -0.000000  -0.000000
    7  O  1  Z    0.000000  -0.489985
    8  O  1  X    0.492462  -0.000000
    9  O  1  Y   -0.000000  -0.000000
   10  O  1  Z   -0.000000  -0.381298
   11  O  1  X    0.004408  -0.000000
   12  O  1  Y   -0.000000  -0.000000
   13  O  1  Z   -0.000000  -0.007127
   14  O  1 XX   -0.000000   0.001474
   15  O  1 YY   -0.000000  -0.001213
   16  O  1 ZZ    0.000000  -0.000261
   17  O  1 XY   -0.000000  -0.000000
   18  O  1 XZ   -0.012164   0.000000
   19  O  1 YZ   -0.000000  -0.000000
   20  O  1 XX   -0.000000  -0.025616
   21  O  1 YY    0.000000  -0.019190
   22  O  1 ZZ   -0.000000   0.044806
   23  O  1 XY   -0.000000  -0.000000
   24  O  1 XZ   -0.043342  -0.000000
   25  O  1 YZ   -0.000000  -0.000000
   26  O  1 XXX   0.001547  -0.000000
   27  O  1 YYY  -0.000000  -0.000000
   28  O  1 ZZZ   0.000000   0.002922
   29  O  1 XXY  -0.000000  -0.000000
   30  O  1 XXZ  -0.000000  -0.003027
   31  O  1 YYX  -0.002489   0.000000
   32  O  1 YYZ   0.000000  -0.000894
   33  O  1 ZZX   0.000413  -0.000000
   34  O  1 ZZY  -0.000000  -0.000000
   35  O  1 XYZ  -0.000000  -0.000000
   36  H  2  S    0.295139   0.280785
   37  H  2  S    0.527746   0.563795
   38  H  2  S    0.018134   0.011476
   39  H  2  X    0.025349   0.035813
   40  H  2  Y   -0.000000  -0.000000
   41  H  2  Z   -0.018796  -0.005598
   42  H  2  X    0.091158   0.151323
   43  H  2  Y   -0.000000  -0.000000
   44  H  2  Z   -0.070073  -0.033110
   45  H  2 XX    0.002968   0.016670
   46  H  2 YY   -0.005016  -0.005093
   47  H  2 ZZ    0.002049  -0.011577
   48  H  2 XY   -0.000000  -0.000000
   49  H  2 XZ   -0.003140   0.002697
   50  H  2 YZ   -0.000000  -0.000000
   51  H  3  S   -0.295139   0.280785
   52  H  3  S   -0.527746   0.563795
   53  H  3  S   -0.018134   0.011476
   54  H  3  X    0.025349  -0.035813
   55  H  3  Y   -0.000000  -0.000000
   56  H  3  Z    0.018796  -0.005598
   57  H  3  X    0.091158  -0.151323
   58  H  3  Y   -0.000000  -0.000000
   59  H  3  Z    0.070073  -0.033110
   60  H  3 XX   -0.002968   0.016670
   61  H  3 YY    0.005016  -0.005093
   62  H  3 ZZ   -0.002049  -0.011577
   63  H  3 XY   -0.000000  -0.000000
   64  H  3 XZ   -0.003140  -0.002697
   65  H  3 YZ   -0.000000  -0.000000

          ------------------------
          MCSCF OPTIMIZED ORBITALS
          ------------------------

                      1          2          3          4          5
                  -21.0889     0.0000     0.0000     0.0000     0.0000
                     A          A          A          A          A   
    1  O  1  S    0.975798   0.004669   0.000000  -0.012559   0.000000
    2  O  1  S   -0.005154   0.515798   0.000000  -0.223295   0.000000
    3  O  1  S    0.042376   0.133582  -0.000000  -0.071169   0.000000
    4  O  1  S   -0.000277   0.222163   0.000000  -0.289792   0.000000
    5  O  1  X    0.000000   0.000000   0.268799   0.000000   0.000000
    6  O  1  Y    0.000000   0.000000   0.000000   0.000000   0.386542
    7  O  1  Z    0.000966   0.030621  -0.000000   0.321307   0.000000
    8  O  1  X   -0.000000  -0.000000   0.336075  -0.000000   0.000000
    9  O  1  Y    0.000000   0.000000   0.000000   0.000000   0.499457
   10  O  1  Z   -0.001728   0.048565   0.000000   0.409360   0.000000
   11  O  1  X   -0.000000  -0.000000   0.128700  -0.000000   0.000000
   12  O  1  Y    0.000000   0.000000   0.000000   0.000000   0.280385
   13  O  1  Z   -0.000137   0.009435   0.000000   0.181720   0.000000
   14  O  1 XX    0.000015   0.003077  -0.000000  -0.000261   0.000000
   15  O  1 YY   -0.000026  -0.004110   0.000000  -0.005877   0.000000
   16  O  1 ZZ    0.000011   0.001033  -0.000000   0.006138   0.000000
   17  O  1 XY    0.000000   0.000000   0.000000   0.000000  -0.000000
   18  O  1 XZ    0.000000   0.000000   0.013703  -0.000000   0.000000
   19  O  1 YZ    0.000000   0.000000   0.000000   0.000000   0.005505
   20  O  1 XX   -0.000330   0.002846   0.000000  -0.008471   0.000000
   21  O  1 YY    0.000473  -0.008443  -0.000000  -0.011463   0.000000
   22  O  1 ZZ   -0.000143   0.005596   0.000000   0.019935   0.000000
   23  O  1 XY    0.000000   0.000000   0.000000   0.000000   0.000000
   24  O  1 XZ   -0.000000  -0.000000   0.027040  -0.000000   0.000000
   25  O  1 YZ    0.000000   0.000000   0.000000   0.000000   0.018962
   26  O  1 XXX   0.000000   0.000000   0.002679  -0.000000   0.000000
   27  O  1 YYY   0.000000   0.000000   0.000000   0.000000  -0.004207
   28  O  1 ZZZ   0.000014  -0.000357  -0.000000   0.000504   0.000000
   29  O  1 XXY   0.000000   0.000000   0.000000   0.000000   0.003915
   30  O  1 XXZ  -0.000095   0.002200   0.000000   0.003064   0.000000
   31  O  1 YYX   0.000000   0.000000  -0.003831   0.000000   0.000000
   32  O  1 YYZ   0.000077  -0.001721  -0.000000  -0.003740   0.000000
   33  O  1 ZZX   0.000000  -0.000000   0.000237  -0.000000   0.000000
   34  O  1 ZZY   0.000000   0.000000   0.000000   0.000000   0.001728
   35  O  1 XYZ   0.000000   0.000000   0.000000   0.000000   0.000000
   36  H  2  S   -0.000282   0.100364  -0.166617   0.098868   0.000000
   37  H  2  S    0.000050   0.100506  -0.253061   0.181021   0.000000
   38  H  2  S   -0.000253  -0.002677  -0.011558   0.012803   0.000000
   39  H  2  X    0.000099   0.013508  -0.012501   0.011060   0.000000
   40  H  2  Y    0.000000   0.000000   0.000000   0.000000   0.010655
   41  H  2  Z   -0.000046  -0.008730   0.015281   0.001190   0.000000
   42  H  2  X    0.000194   0.021855  -0.033558   0.041651   0.000000
   43  H  2  Y    0.000000   0.000000   0.000000   0.000000   0.028384
   44  H  2  Z   -0.000175  -0.010489   0.033150   0.002710   0.000000
   45  H  2 XX   -0.000022   0.002520  -0.001973   0.005124   0.000000
   46  H  2 YY    0.000059  -0.002221   0.004364  -0.001603   0.000000
   47  H  2 ZZ   -0.000037  -0.000299  -0.002391  -0.003522   0.000000
   48  H  2 XY    0.000000   0.000000   0.000000   0.000000   0.004872
   49  H  2 XZ    0.000144  -0.003112   0.006116   0.000009   0.000000
   50  H  2 YZ    0.000000   0.000000   0.000000   0.000000  -0.003418
   51  H  3  S   -0.000282   0.100364   0.166617   0.098868   0.000000
   52  H  3  S    0.000050   0.100506   0.253061   0.181021   0.000000
   53  H  3  S   -0.000253  -0.002677   0.011558   0.012803   0.000000
   54  H  3  X   -0.000099  -0.013508  -0.012501  -0.011060   0.000000
   55  H  3  Y    0.000000   0.000000   0.000000   0.000000   0.010655
   56  H  3  Z   -0.000046  -0.008730  -0.015281   0.001190   0.000000
   57  H  3  X   -0.000194  -0.021855  -0.033558  -0.041651   0.000000
   58  H  3  Y    0.000000   0.000000   0.000000   0.000000   0.028384
   59  H  3  Z   -0.000175  -0.010489  -0.033150   0.002710   0.000000
   60  H  3 XX   -0.000022   0.002520   0.001973   0.005124   0.000000
   61  H  3 YY    0.000059  -0.002221  -0.004364  -0.001603   0.000000
   62  H  3 ZZ   -0.000037  -0.000299   0.002391  -0.003522   0.000000
   63  H  3 XY    0.000000   0.000000   0.000000   0.000000  -0.004872
   64  H  3 XZ   -0.000144   0.003112   0.006116  -0.000009   0.000000
   65  H  3 YZ    0.000000   0.000000   0.000000   0.000000  -0.003418

                      6          7          8          9         10
                    0.0000     0.0000     0.0084     0.0487     0.2829
                     A          A          A          A          A   
    1  O  1  S   -0.048532  -0.000000  -0.035890   0.000000   0.029554
    2  O  1  S   -0.503458  -0.000000  -0.023190   0.000000   0.156105
    3  O  1  S   -0.279743   0.000000  -0.010001   0.000000  -0.006978
    4  O  1  S   -0.363126  -0.000000   1.610412  -0.000000   3.214981
    5  O  1  X    0.000000   0.557665   0.000000  -0.003585  -0.000000
    6  O  1  Y   -0.000000  -0.000000   0.000000   0.000000   0.000000
    7  O  1  Z   -0.507432   0.000000  -0.079204   0.000000  -0.115830
    8  O  1  X   -0.000000   0.524154  -0.000000  -0.025923  -0.000000
    9  O  1  Y   -0.000000  -0.000000   0.000000   0.000000   0.000000
   10  O  1  Z   -0.403444  -0.000000  -0.040092  -0.000000  -0.027962
   11  O  1  X   -0.000000   0.015824   0.000000   0.403072   0.000000
   12  O  1  Y   -0.000000  -0.000000   0.000000   0.000000   0.000000
   13  O  1  Z   -0.016107  -0.000000   0.547277   0.000000   1.994349
   14  O  1 XX    0.001357   0.000000   0.001179   0.000000  -0.025387
   15  O  1 YY   -0.000762  -0.000000  -0.000893   0.000000   0.025119
   16  O  1 ZZ   -0.000595   0.000000  -0.000286   0.000000   0.000268
   17  O  1 XY   -0.000000  -0.000000   0.000000   0.000000   0.000000
   18  O  1 XZ   -0.000000  -0.010998   0.000000   0.008780  -0.000000
   19  O  1 YZ   -0.000000  -0.000000   0.000000   0.000000   0.000000
   20  O  1 XX   -0.025391  -0.000000   0.068237   0.000000   0.138116
   21  O  1 YY   -0.018326   0.000000  -0.093524   0.000000  -0.173606
   22  O  1 ZZ    0.043718  -0.000000   0.025286   0.000000   0.035490
   23  O  1 XY   -0.000000  -0.000000   0.000000   0.000000   0.000000
   24  O  1 XZ   -0.000000  -0.041117   0.000000   0.052361   0.000000
   25  O  1 YZ   -0.000000  -0.000000   0.000000   0.000000   0.000000
   26  O  1 XXX  -0.000000   0.001790   0.000000  -0.000186   0.000000
   27  O  1 YYY  -0.000000  -0.000000   0.000000   0.000000   0.000000
   28  O  1 ZZZ   0.002920   0.000000  -0.004998   0.000000  -0.014468
   29  O  1 XXY  -0.000000  -0.000000   0.000000   0.000000   0.000000
   30  O  1 XXZ  -0.003272  -0.000000   0.012254   0.000000   0.033903
   31  O  1 YYX   0.000000  -0.002838   0.000000   0.000821   0.000000
   32  O  1 YYZ  -0.000645   0.000000  -0.005549   0.000000  -0.014491
   33  O  1 ZZX  -0.000000   0.000436   0.000000  -0.000571   0.000000
   34  O  1 ZZY  -0.000000  -0.000000   0.000000   0.000000   0.000000
   35  O  1 XYZ  -0.000000  -0.000000   0.000000   0.000000   0.000000
   36  H  2  S    0.272386   0.281538   0.048398  -0.060812  -0.039409
   37  H  2  S    0.552094   0.507400   0.034322  -0.461597  -2.188544
   38  H  2  S    0.011011   0.017181  -1.105781   1.910689   0.012008
   39  H  2  X    0.034785   0.024341   0.003730  -0.020713  -0.034430
   40  H  2  Y   -0.000000  -0.000000   0.000000   0.000000   0.000000
   41  H  2  Z   -0.005290  -0.017516  -0.003823   0.013324   0.014602
   42  H  2  X    0.148729   0.088542  -0.213115   0.107558  -0.332523
   43  H  2  Y   -0.000000  -0.000000   0.000000   0.000000   0.000000
   44  H  2  Z   -0.032855  -0.067411   0.203926  -0.114985   0.540965
   45  H  2 XX    0.016354   0.002804  -0.006778   0.003711  -0.019335
   46  H  2 YY   -0.004933  -0.004650   0.009945  -0.005233   0.033615
   47  H  2 ZZ   -0.011421   0.001845  -0.003168   0.001523  -0.014280
   48  H  2 XY   -0.000000  -0.000000   0.000000   0.000000   0.000000
   49  H  2 XZ    0.002835  -0.002611   0.025268  -0.003221   0.048282
   50  H  2 YZ   -0.000000  -0.000000   0.000000   0.000000   0.000000
   51  H  3  S    0.272386  -0.281538   0.048398   0.060812  -0.039409
   52  H  3  S    0.552094  -0.507400   0.034322   0.461597  -2.188544
   53  H  3  S    0.011011  -0.017181  -1.105781  -1.910689   0.012008
   54  H  3  X   -0.034785   0.024341  -0.003730  -0.020713   0.034430
   55  H  3  Y   -0.000000  -0.000000   0.000000   0.000000   0.000000
   56  H  3  Z   -0.005290   0.017516  -0.003823  -0.013324   0.014602
   57  H  3  X   -0.148729   0.088542   0.213115   0.107558   0.332523
   58  H  3  Y   -0.000000  -0.000000   0.000000   0.000000   0.000000
   59  H  3  Z   -0.032855   0.067411   0.203926   0.114985   0.540965
   60  H  3 XX    0.016354  -0.002804  -0.006778  -0.003711  -0.019335
   61  H  3 YY   -0.004933   0.004650   0.009945   0.005233   0.033615
   62  H  3 ZZ   -0.011421  -0.001845  -0.003168  -0.001523  -0.014280
   63  H  3 XY   -0.000000  -0.000000   0.000000   0.000000   0.000000
   64  H  3 XZ   -0.002835  -0.002611  -0.025268  -0.003221  -0.048282
   65  H  3 YZ   -0.000000  -0.000000   0.000000   0.000000   0.000000

                     11         12         13         14         15
                    0.3544     0.3945     0.4138     0.4942     0.5882
                     A          A          A          A          A   
    1  O  1  S   -0.000000  -0.000000   0.040010  -0.000000  -0.000000
    2  O  1  S   -0.000000  -0.000000   0.135962  -0.000000  -0.000000
    3  O  1  S    0.000000  -0.000000   0.010088  -0.000000  -0.000000
    4  O  1  S   -0.000000  -0.000000   2.188940  -0.000000  -0.000000
    5  O  1  X   -0.146938  -0.000000  -0.000000  -0.000000  -0.000000
    6  O  1  Y    0.000000  -0.245332   0.000000  -0.000000   0.007523
    7  O  1  Z   -0.000000  -0.000000  -0.056690  -0.000000  -0.000000
    8  O  1  X    0.065121  -0.000000  -0.000000  -0.000000  -0.000000
    9  O  1  Y    0.000000  -0.717950   0.000000  -0.000000   0.005374
   10  O  1  Z   -0.000000  -0.000000   0.063875  -0.000000  -0.000000
   11  O  1  X    2.907514  -0.000000  -0.000000  -0.000000  -0.000000
   12  O  1  Y    0.000000   1.106741   0.000000  -0.000000   1.187561
   13  O  1  Z    0.000000  -0.000000   2.086797  -0.000000  -0.000000
   14  O  1 XX    0.000000  -0.000000   0.021446  -0.000000  -0.000000
   15  O  1 YY    0.000000  -0.000000   0.017288  -0.000000  -0.000000
   16  O  1 ZZ   -0.000000  -0.000000  -0.038735  -0.000000  -0.000000
   17  O  1 XY    0.000000  -0.000000   0.000000  -0.026646  -0.000000
   18  O  1 XZ   -0.033471  -0.000000   0.000000  -0.000000  -0.000000
   19  O  1 YZ    0.000000  -0.005816   0.000000  -0.000000  -0.024481
   20  O  1 XX   -0.000000  -0.000000  -0.018315  -0.000000  -0.000000
   21  O  1 YY    0.000000  -0.000000  -0.098742  -0.000000  -0.000000
   22  O  1 ZZ    0.000000  -0.000000   0.117058  -0.000000  -0.000000
   23  O  1 XY    0.000000  -0.000000   0.000000  -0.011056  -0.000000
   24  O  1 XZ    0.372737  -0.000000  -0.000000  -0.000000  -0.000000
   25  O  1 YZ    0.000000   0.034731   0.000000  -0.000000  -0.036668
   26  O  1 XXX   0.001422  -0.000000   0.000000  -0.000000  -0.000000
   27  O  1 YYY   0.000000  -0.004710   0.000000  -0.000000  -0.015684
   28  O  1 ZZZ   0.000000  -0.000000   0.010744  -0.000000  -0.000000
   29  O  1 XXY   0.000000   0.003936   0.000000  -0.000000   0.015908
   30  O  1 XXZ  -0.000000  -0.000000  -0.000047  -0.000000  -0.000000
   31  O  1 YYX  -0.031717  -0.000000   0.000000  -0.000000  -0.000000
   32  O  1 YYZ   0.000000  -0.000000  -0.014368  -0.000000  -0.000000
   33  O  1 ZZX   0.029809  -0.000000   0.000000  -0.000000  -0.000000
   34  O  1 ZZY   0.000000   0.002384   0.000000  -0.000000   0.005134
   35  O  1 XYZ   0.000000  -0.000000   0.000000   0.013727  -0.000000
   36  H  2  S    0.018372  -0.000000   0.030450  -0.000000  -0.000000
   37  H  2  S    1.897545  -0.000000  -1.468447  -0.000000  -0.000000
   38  H  2  S    1.047118  -0.000000  -0.025051  -0.000000  -0.000000
   39  H  2  X    0.055179  -0.000000   0.013287  -0.000000  -0.000000
   40  H  2  Y    0.000000  -0.013402   0.000000  -0.049776   0.060988
   41  H  2  Z   -0.040379  -0.000000   0.026200  -0.000000  -0.000000
   42  H  2  X    0.572864  -0.000000  -0.887813  -0.000000  -0.000000
   43  H  2  Y    0.000000   0.086110   0.000000   0.822652  -0.967251
   44  H  2  Z   -0.393292  -0.000000  -0.319454  -0.000000  -0.000000
   45  H  2 XX    0.039612  -0.000000  -0.057766  -0.000000  -0.000000
   46  H  2 YY   -0.037871  -0.000000   0.018746  -0.000000  -0.000000
   47  H  2 ZZ   -0.001741  -0.000000   0.039020  -0.000000  -0.000000
   48  H  2 XY    0.000000  -0.013523   0.000000   0.012644  -0.042052
   49  H  2 XZ   -0.073303  -0.000000  -0.000464  -0.000000  -0.000000
   50  H  2 YZ    0.000000   0.011879   0.000000  -0.025104   0.003332
   51  H  3  S   -0.018372  -0.000000   0.030450  -0.000000  -0.000000
   52  H  3  S   -1.897545  -0.000000  -1.468447  -0.000000  -0.000000
   53  H  3  S   -1.047118  -0.000000  -0.025051  -0.000000  -0.000000
   54  H  3  X    0.055179  -0.000000  -0.013287  -0.000000  -0.000000
   55  H  3  Y    0.000000  -0.013402   0.000000   0.049776   0.060988
   56  H  3  Z    0.040379  -0.000000   0.026200  -0.000000  -0.000000
   57  H  3  X    0.572864  -0.000000   0.887813  -0.000000  -0.000000
   58  H  3  Y    0.000000   0.086110   0.000000  -0.822652  -0.967251
   59  H  3  Z    0.393292  -0.000000  -0.319454  -0.000000  -0.000000
   60  H  3 XX   -0.039612  -0.000000  -0.057766  -0.000000  -0.000000
   61  H  3 YY    0.037871  -0.000000   0.018746  -0.000000  -0.000000
   62  H  3 ZZ    0.001741  -0.000000   0.039020  -0.000000  -0.000000
   63  H  3 XY    0.000000   0.013523   0.000000   0.012644   0.042052
   64  H  3 XZ   -0.073303  -0.000000   0.000464  -0.000000  -0.000000
   65  H  3 YZ    0.000000   0.011879   0.000000   0.025104   0.003332

                     16         17         18         19         20
                    0.7425     0.8415     0.9888     1.0022     1.6010
                     A          A          A          A          A   
    1  O  1  S   -0.281421  -0.000000   0.245911   0.000000  -0.000000
    2  O  1  S   -0.881158  -0.000000   0.627727   0.000000  -0.000000
    3  O  1  S   -0.287420  -0.000000   0.177649   0.000000  -0.000000
    4  O  1  S    6.797763   0.000000   2.959232   0.000000  -0.000000
    5  O  1  X    0.000000   0.010847  -0.000000   0.062520  -0.000000
    6  O  1  Y    0.000000   0.000000   0.000000   0.000000  -0.008576
    7  O  1  Z    0.037564   0.000000   0.090776   0.000000  -0.000000
    8  O  1  X   -0.000000   0.237968  -0.000000   0.861321  -0.000000
    9  O  1  Y    0.000000   0.000000   0.000000   0.000000   0.049855
   10  O  1  Z    0.962298  -0.000000   0.464923   0.000000  -0.000000
   11  O  1  X   -0.000000   1.911063  -0.000000   1.084646  -0.000000
   12  O  1  Y    0.000000   0.000000   0.000000   0.000000   0.751257
   13  O  1  Z    1.709888  -0.000000   0.555889   0.000000  -0.000000
   14  O  1 XX   -0.008961   0.000000  -0.014415  -0.000000  -0.000000
   15  O  1 YY    0.010166   0.000000   0.010826   0.000000  -0.000000
   16  O  1 ZZ   -0.001205   0.000000   0.003589   0.000000  -0.000000
   17  O  1 XY    0.000000   0.000000   0.000000   0.000000  -0.000000
   18  O  1 XZ   -0.000000  -0.004746   0.000000  -0.006323  -0.000000
   19  O  1 YZ    0.000000   0.000000   0.000000   0.000000  -0.008158
   20  O  1 XX    0.237336   0.000000  -0.031047  -0.000000  -0.000000
   21  O  1 YY   -0.201332   0.000000   0.061158   0.000000  -0.000000
   22  O  1 ZZ   -0.036003  -0.000000  -0.030112  -0.000000  -0.000000
   23  O  1 XY    0.000000   0.000000   0.000000   0.000000  -0.000000
   24  O  1 XZ   -0.000000   0.093885  -0.000000   0.027760  -0.000000
   25  O  1 YZ    0.000000   0.000000   0.000000   0.000000   1.168337
   26  O  1 XXX  -0.000000   0.009434   0.000000  -0.000850  -0.000000
   27  O  1 YYY   0.000000   0.000000   0.000000   0.000000  -0.009274
   28  O  1 ZZZ  -0.039673   0.000000   0.011370   0.000000  -0.000000
   29  O  1 XXY   0.000000   0.000000   0.000000   0.000000  -0.002723
   30  O  1 XXZ   0.093061   0.000000  -0.035730  -0.000000  -0.000000
   31  O  1 YYX   0.000000  -0.010886   0.000000   0.002389  -0.000000
   32  O  1 YYZ  -0.039834   0.000000   0.020476   0.000000  -0.000000
   33  O  1 ZZX   0.000000  -0.001772   0.000000  -0.001249  -0.000000
   34  O  1 ZZY   0.000000   0.000000   0.000000   0.000000   0.015164
   35  O  1 XYZ   0.000000   0.000000   0.000000   0.000000  -0.000000
   36  H  2  S    0.032105  -0.000630  -0.086967   0.107946  -0.000000
   37  H  2  S   -2.811989   1.066028  -0.956135   1.100814  -0.000000
   38  H  2  S   -0.617438   0.285434  -0.538917   1.157749  -0.000000
   39  H  2  X   -0.080851   0.056537   0.078852  -0.056260  -0.000000
   40  H  2  Y    0.000000   0.000000   0.000000   0.000000   0.038947
   41  H  2  Z    0.081481   0.049922  -0.081991   0.027698  -0.000000
   42  H  2  X   -1.043320  -0.409727  -1.155913   1.592314  -0.000000
   43  H  2  Y    0.000000   0.000000   0.000000   0.000000  -0.709128
   44  H  2  Z    0.646017  -1.195306   1.091762  -0.999165  -0.000000
   45  H  2 XX   -0.065880   0.001636   0.000223   0.050902  -0.000000
   46  H  2 YY    0.103644  -0.017334   0.007073  -0.045455  -0.000000
   47  H  2 ZZ   -0.037764   0.015698  -0.007296  -0.005447  -0.000000
   48  H  2 XY    0.000000   0.000000   0.000000   0.000000   0.021683
   49  H  2 XZ    0.146337  -0.025032   0.003508  -0.084626  -0.000000
   50  H  2 YZ    0.000000   0.000000   0.000000   0.000000   0.069612
   51  H  3  S    0.032105   0.000630  -0.086967  -0.107946  -0.000000
   52  H  3  S   -2.811989  -1.066028  -0.956135  -1.100814  -0.000000
   53  H  3  S   -0.617438  -0.285434  -0.538917  -1.157749  -0.000000
   54  H  3  X    0.080851   0.056537  -0.078852  -0.056260  -0.000000
   55  H  3  Y    0.000000   0.000000   0.000000   0.000000   0.038947
   56  H  3  Z    0.081481  -0.049922  -0.081991  -0.027698  -0.000000
   57  H  3  X    1.043320  -0.409727   1.155913   1.592314  -0.000000
   58  H  3  Y    0.000000   0.000000   0.000000   0.000000  -0.709128
   59  H  3  Z    0.646017   1.195306   1.091762   0.999165  -0.000000
   60  H  3 XX   -0.065880  -0.001636   0.000223  -0.050902  -0.000000
   61  H  3 YY    0.103644   0.017334   0.007073   0.045455  -0.000000
   62  H  3 ZZ   -0.037764  -0.015698  -0.007296   0.005447  -0.000000
   63  H  3 XY    0.000000   0.000000   0.000000   0.000000  -0.021683
   64  H  3 XZ   -0.146337  -0.025032  -0.003508  -0.084626  -0.000000
   65  H  3 YZ    0.000000   0.000000   0.000000   0.000000   0.069612

                     21         22         23         24         25
                    1.6199     1.6516     1.7186     1.7954     2.0961
                     A          A          A          A          A   
    1  O  1  S   -0.000000  -0.000000   0.125062   0.082184  -0.275329
    2  O  1  S   -0.000000  -0.000000   0.276067   0.164115  -0.598099
    3  O  1  S   -0.000000   0.000000   0.023770  -0.059153  -0.060553
    4  O  1  S   -0.000000  -0.000000   2.724855   6.768509  -1.286780
    5  O  1  X   -0.000000   0.031490   0.000000   0.000000  -0.000000
    6  O  1  Y   -0.000000  -0.000000  -0.000000  -0.000000  -0.000000
    7  O  1  Z   -0.000000  -0.000000   0.057986   0.115455   0.163305
    8  O  1  X   -0.000000   1.820797   0.000000   0.000000  -0.000000
    9  O  1  Y   -0.000000  -0.000000  -0.000000  -0.000000  -0.000000
   10  O  1  Z   -0.000000  -0.000000   0.337751   0.836584  -0.571037
   11  O  1  X   -0.000000   2.880580   0.000000   0.000000  -0.000000
   12  O  1  Y   -0.000000  -0.000000  -0.000000  -0.000000  -0.000000
   13  O  1  Z   -0.000000  -0.000000   0.425319   2.795096  -0.520741
   14  O  1 XX   -0.000000  -0.000000  -0.002304  -0.000397  -0.019168
   15  O  1 YY   -0.000000  -0.000000  -0.001037  -0.001719   0.017118
   16  O  1 ZZ   -0.000000  -0.000000   0.003341   0.002116   0.002050
   17  O  1 XY   -0.008302  -0.000000  -0.000000  -0.000000  -0.000000
   18  O  1 XZ   -0.000000   0.016531  -0.000000  -0.000000  -0.000000
   19  O  1 YZ   -0.000000  -0.000000  -0.000000  -0.000000  -0.000000
   20  O  1 XX   -0.000000  -0.000000   1.377630   0.489636   0.322516
   21  O  1 YY   -0.000000   0.000000  -0.413197  -1.442491  -0.156304
   22  O  1 ZZ   -0.000000  -0.000000  -0.964433   0.952855  -0.166212
   23  O  1 XY    1.230775  -0.000000  -0.000000  -0.000000  -0.000000
   24  O  1 XZ   -0.000000   1.736242   0.000000   0.000000  -0.000000
   25  O  1 YZ   -0.000000  -0.000000  -0.000000  -0.000000  -0.000000
   26  O  1 XXX  -0.000000  -0.004444  -0.000000  -0.000000  -0.000000
   27  O  1 YYY  -0.000000  -0.000000  -0.000000  -0.000000  -0.000000
   28  O  1 ZZZ  -0.000000   0.000000  -0.043213  -0.020060   0.050333
   29  O  1 XXY  -0.000000  -0.000000  -0.000000  -0.000000  -0.000000
   30  O  1 XXZ  -0.000000  -0.000000   0.080833   0.077355  -0.134760
   31  O  1 YYX  -0.000000  -0.121765  -0.000000  -0.000000  -0.000000
   32  O  1 YYZ  -0.000000   0.000000  -0.022856  -0.050442   0.067230
   33  O  1 ZZX  -0.000000   0.127727   0.000000   0.000000  -0.000000
   34  O  1 ZZY  -0.000000  -0.000000  -0.000000  -0.000000  -0.000000
   35  O  1 XYZ   0.019262  -0.000000  -0.000000  -0.000000  -0.000000
   36  H  2  S   -0.000000  -0.400043   0.179394   0.163652  -0.934685
   37  H  2  S   -0.000000   4.583894  -1.729162  -4.057574   1.979366
   38  H  2  S   -0.000000   0.297159  -0.062050  -0.181214  -0.344749
   39  H  2  X   -0.000000   0.150018  -0.108894  -0.055250   0.085188
   40  H  2  Y   -0.052893  -0.000000  -0.000000  -0.000000  -0.000000
   41  H  2  Z   -0.000000  -0.162565  -0.037650   0.062257  -0.063181
   42  H  2  X   -0.000000   1.807551  -0.225773  -1.494200   0.430518
   43  H  2  Y    0.634303  -0.000000  -0.000000  -0.000000  -0.000000
   44  H  2  Z   -0.000000  -1.308411   1.019079   0.668640  -0.194847
   45  H  2 XX   -0.000000   0.126317   0.016120  -0.063040   0.103442
   46  H  2 YY   -0.000000  -0.125159   0.025440   0.045546  -0.141805
   47  H  2 ZZ   -0.000000  -0.001158  -0.041560   0.017494   0.038363
   48  H  2 XY    0.055066  -0.000000  -0.000000  -0.000000  -0.000000
   49  H  2 XZ   -0.000000  -0.259839   0.072319   0.117741   0.065829
   50  H  2 YZ    0.012471  -0.000000  -0.000000  -0.000000  -0.000000
   51  H  3  S   -0.000000   0.400043   0.179394   0.163652  -0.934685
   52  H  3  S   -0.000000  -4.583894  -1.729162  -4.057574   1.979366
   53  H  3  S   -0.000000  -0.297159  -0.062050  -0.181214  -0.344749
   54  H  3  X   -0.000000   0.150018   0.108894   0.055250  -0.085188
   55  H  3  Y    0.052893  -0.000000  -0.000000  -0.000000  -0.000000
   56  H  3  Z   -0.000000   0.162565  -0.037650   0.062257  -0.063181
   57  H  3  X   -0.000000   1.807551   0.225773   1.494200  -0.430518
   58  H  3  Y   -0.634303  -0.000000  -0.000000  -0.000000  -0.000000
   59  H  3  Z   -0.000000   1.308411   1.019079   0.668640  -0.194847
   60  H  3 XX   -0.000000  -0.126317   0.016120  -0.063040   0.103442
   61  H  3 YY   -0.000000   0.125159   0.025440   0.045546  -0.141805
   62  H  3 ZZ   -0.000000   0.001158  -0.041560   0.017494   0.038363
   63  H  3 XY    0.055066  -0.000000  -0.000000  -0.000000  -0.000000
   64  H  3 XZ   -0.000000  -0.259839  -0.072319  -0.117741  -0.065829
   65  H  3 YZ   -0.012471  -0.000000  -0.000000  -0.000000  -0.000000

                     26         27         28         29         30
                    2.4750     2.9079     3.0501     3.1482     3.2315
                     A          A          A          A          A   
    1  O  1  S    0.000000   0.000000   0.030269   0.000000  -0.000000
    2  O  1  S    0.000000   0.000000   0.078834   0.000000   0.000000
    3  O  1  S    0.000000   0.000000  -0.001077   0.000000  -0.000000
    4  O  1  S   -0.000000   0.000000   1.212753   0.000000   0.000000
    5  O  1  X    0.298263   0.000000   0.000000   0.000000   0.007162
    6  O  1  Y    0.000000   0.100301  -0.000000   0.000000  -0.000000
    7  O  1  Z    0.000000   0.000000  -0.075847   0.000000  -0.000000
    8  O  1  X   -0.650900   0.000000  -0.000000   0.000000  -0.089745
    9  O  1  Y    0.000000  -0.066846  -0.000000   0.000000  -0.000000
   10  O  1  Z   -0.000000   0.000000   0.092641   0.000000  -0.000000
   11  O  1  X    0.528612   0.000000  -0.000000   0.000000  -0.123903
   12  O  1  Y    0.000000  -0.129283  -0.000000   0.000000  -0.000000
   13  O  1  Z   -0.000000   0.000000   0.393571   0.000000   0.000000
   14  O  1 XX    0.000000   0.000000  -0.041867   0.000000  -0.000000
   15  O  1 YY    0.000000   0.000000   0.005197   0.000000  -0.000000
   16  O  1 ZZ    0.000000   0.000000   0.036670   0.000000  -0.000000
   17  O  1 XY    0.000000   0.000000  -0.000000   0.052814  -0.000000
   18  O  1 XZ   -0.003433   0.000000  -0.000000   0.000000  -0.062447
   19  O  1 YZ    0.000000  -0.023231  -0.000000   0.000000  -0.000000
   20  O  1 XX   -0.000000   0.000000   0.156919   0.000000  -0.000000
   21  O  1 YY    0.000000   0.000000   0.267582   0.000000  -0.000000
   22  O  1 ZZ   -0.000000   0.000000  -0.424501   0.000000  -0.000000
   23  O  1 XY    0.000000   0.000000  -0.000000   0.064219  -0.000000
   24  O  1 XZ    0.695425   0.000000  -0.000000   0.000000  -0.356026
   25  O  1 YZ    0.000000  -0.333872  -0.000000   0.000000  -0.000000
   26  O  1 XXX  -0.026451   0.000000  -0.000000   0.000000  -0.030242
   27  O  1 YYY   0.000000   0.011590  -0.000000   0.000000  -0.000000
   28  O  1 ZZZ   0.000000   0.000000   0.051002   0.000000  -0.000000
   29  O  1 XXY   0.000000  -0.119444  -0.000000   0.000000  -0.000000
   30  O  1 XXZ   0.000000   0.000000   0.043312   0.000000  -0.000000
   31  O  1 YYX   0.129036   0.000000  -0.000000   0.000000   0.049231
   32  O  1 YYZ   0.000000   0.000000  -0.111739   0.000000  -0.000000
   33  O  1 ZZX  -0.093549   0.000000  -0.000000   0.000000  -0.008658
   34  O  1 ZZY   0.000000   0.103895  -0.000000   0.000000  -0.000000
   35  O  1 XYZ   0.000000   0.000000  -0.000000   0.122754  -0.000000
   36  H  2  S    0.837891   0.000000   0.299883   0.000000  -0.335650
   37  H  2  S   -0.849422   0.000000  -0.969878   0.000000   0.035454
   38  H  2  S    0.590791   0.000000   0.036416   0.000000  -0.227681
   39  H  2  X   -0.125232   0.000000  -0.043050   0.000000   0.246586
   40  H  2  Y    0.000000  -0.206616  -0.000000  -0.483936  -0.000000
   41  H  2  Z    0.067925   0.000000   0.083363   0.000000  -0.057890
   42  H  2  X   -0.060560   0.000000  -0.208028   0.000000  -0.323521
   43  H  2  Y    0.000000   0.213422  -0.000000   0.300574  -0.000000
   44  H  2  Z    0.084813   0.000000   0.214320   0.000000   0.105919
   45  H  2 XX    0.036130   0.000000   0.458578   0.000000  -0.108184
   46  H  2 YY   -0.153785   0.000000  -0.580992   0.000000  -0.394392
   47  H  2 ZZ    0.117655   0.000000   0.122414   0.000000   0.502576
   48  H  2 XY    0.000000   0.371084  -0.000000  -0.391561  -0.000000
   49  H  2 XZ    0.136668   0.000000   0.327183   0.000000   0.417457
   50  H  2 YZ    0.000000   0.521587  -0.000000  -0.407274  -0.000000
   51  H  3  S   -0.837891   0.000000   0.299883   0.000000   0.335650
   52  H  3  S    0.849422   0.000000  -0.969878   0.000000  -0.035454
   53  H  3  S   -0.590791   0.000000   0.036416   0.000000   0.227681
   54  H  3  X   -0.125232   0.000000   0.043050   0.000000   0.246586
   55  H  3  Y    0.000000  -0.206616  -0.000000   0.483936  -0.000000
   56  H  3  Z   -0.067925   0.000000   0.083363   0.000000   0.057890
   57  H  3  X   -0.060560   0.000000   0.208028   0.000000  -0.323521
   58  H  3  Y    0.000000   0.213422  -0.000000  -0.300574  -0.000000
   59  H  3  Z   -0.084813   0.000000   0.214320   0.000000  -0.105919
   60  H  3 XX   -0.036130   0.000000   0.458578   0.000000   0.108184
   61  H  3 YY    0.153785   0.000000  -0.580992   0.000000   0.394392
   62  H  3 ZZ   -0.117655   0.000000   0.122414   0.000000  -0.502576
   63  H  3 XY    0.000000  -0.371084  -0.000000  -0.391561  -0.000000
   64  H  3 XZ    0.136668   0.000000  -0.327183   0.000000   0.417457
   65  H  3 YZ    0.000000   0.521587  -0.000000   0.407274  -0.000000

                     31         32         33         34         35
                    3.3216     3.4202     3.4657     3.5292     3.5867
                     A          A          A          A          A   
    1  O  1  S    0.000000  -0.000000   0.096714   0.000000   0.000000
    2  O  1  S    0.000000  -0.000000   0.219363   0.000000   0.000000
    3  O  1  S    0.000000   0.000000   0.080471   0.000000   0.000000
    4  O  1  S    0.000000  -0.000000   0.115226   0.000000   0.000000
    5  O  1  X    0.000000  -0.116743  -0.000000   0.000000   0.000000
    6  O  1  Y    0.829868   0.000000  -0.000000   0.000000  -0.480026
    7  O  1  Z    0.000000   0.000000   0.014123   0.000000   0.000000
    8  O  1  X    0.000000   0.186625  -0.000000   0.000000   0.000000
    9  O  1  Y   -0.731388   0.000000  -0.000000   0.000000   0.169779
   10  O  1  Z    0.000000  -0.000000  -0.149897   0.000000   0.000000
   11  O  1  X    0.000000   0.837407   0.000000   0.000000   0.000000
   12  O  1  Y    0.273346   0.000000  -0.000000   0.000000  -0.730670
   13  O  1  Z    0.000000   0.000000  -0.327343   0.000000   0.000000
   14  O  1 XX    0.000000   0.000000  -0.000877   0.000000   0.000000
   15  O  1 YY    0.000000   0.000000  -0.011082   0.000000   0.000000
   16  O  1 ZZ    0.000000   0.000000   0.011959   0.000000   0.000000
   17  O  1 XY    0.000000   0.000000  -0.000000   0.020687   0.000000
   18  O  1 XZ    0.000000  -0.017281  -0.000000   0.000000   0.000000
   19  O  1 YZ   -0.041903   0.000000  -0.000000   0.000000  -0.001319
   20  O  1 XX    0.000000  -0.000000   0.290396   0.000000   0.000000
   21  O  1 YY    0.000000   0.000000   0.004704   0.000000   0.000000
   22  O  1 ZZ    0.000000   0.000000  -0.295100   0.000000   0.000000
   23  O  1 XY    0.000000   0.000000  -0.000000  -0.195192   0.000000
   24  O  1 XZ    0.000000   0.385455   0.000000   0.000000   0.000000
   25  O  1 YZ    0.349114   0.000000  -0.000000   0.000000  -0.355570
   26  O  1 XXX   0.000000   0.150086  -0.000000   0.000000   0.000000
   27  O  1 YYY   0.080182   0.000000  -0.000000   0.000000   0.161410
   28  O  1 ZZZ   0.000000   0.000000  -0.179755   0.000000   0.000000
   29  O  1 XXY  -0.020464   0.000000  -0.000000   0.000000  -0.120719
   30  O  1 XXZ   0.000000  -0.000000   0.165651   0.000000   0.000000
   31  O  1 YYX   0.000000  -0.021709  -0.000000   0.000000   0.000000
   32  O  1 YYZ   0.000000   0.000000   0.075516   0.000000   0.000000
   33  O  1 ZZX   0.000000  -0.179653  -0.000000   0.000000   0.000000
   34  O  1 ZZY  -0.087112   0.000000  -0.000000   0.000000  -0.095835
   35  O  1 XYZ   0.000000   0.000000  -0.000000   0.178466   0.000000
   36  H  2  S    0.000000   0.045574  -0.019754   0.000000   0.000000
   37  H  2  S    0.000000   0.658942  -0.028749   0.000000   0.000000
   38  H  2  S    0.000000   0.037518  -0.055811   0.000000   0.000000
   39  H  2  X    0.000000   0.544254  -0.357436   0.000000   0.000000
   40  H  2  Y   -0.523540   0.000000  -0.000000  -0.695381  -0.623005
   41  H  2  Z    0.000000   0.600273  -0.605033   0.000000   0.000000
   42  H  2  X    0.000000  -0.259179   0.213466   0.000000   0.000000
   43  H  2  Y    0.219480   0.000000  -0.000000   0.453545   0.732801
   44  H  2  Z    0.000000  -0.655415   0.620042   0.000000   0.000000
   45  H  2 XX    0.000000   0.122326   0.328140   0.000000   0.000000
   46  H  2 YY    0.000000   0.037918   0.138778   0.000000   0.000000
   47  H  2 ZZ    0.000000  -0.160244  -0.466917   0.000000   0.000000
   48  H  2 XY   -0.285452   0.000000  -0.000000   0.406300   0.395378
   49  H  2 XZ    0.000000   0.063090   0.198830   0.000000   0.000000
   50  H  2 YZ   -0.018812   0.000000  -0.000000   0.262245  -0.398560
   51  H  3  S    0.000000  -0.045574  -0.019754   0.000000   0.000000
   52  H  3  S    0.000000  -0.658942  -0.028749   0.000000   0.000000
   53  H  3  S    0.000000  -0.037518  -0.055811   0.000000   0.000000
   54  H  3  X    0.000000   0.544254   0.357436   0.000000   0.000000
   55  H  3  Y   -0.523540   0.000000  -0.000000   0.695381  -0.623005
   56  H  3  Z    0.000000  -0.600273  -0.605033   0.000000   0.000000
   57  H  3  X    0.000000  -0.259179  -0.213466   0.000000   0.000000
   58  H  3  Y    0.219480   0.000000  -0.000000  -0.453545   0.732801
   59  H  3  Z    0.000000   0.655415   0.620042   0.000000   0.000000
   60  H  3 XX    0.000000  -0.122326   0.328140   0.000000   0.000000
   61  H  3 YY    0.000000  -0.037918   0.138778   0.000000   0.000000
   62  H  3 ZZ    0.000000   0.160244  -0.466917   0.000000   0.000000
   63  H  3 XY    0.285452   0.000000  -0.000000   0.406300  -0.395378
   64  H  3 XZ    0.000000   0.063090  -0.198830   0.000000   0.000000
   65  H  3 YZ   -0.018812   0.000000  -0.000000  -0.262245  -0.398560

                     36         37         38         39         40
                    3.5872     3.6699     3.8721     3.9213     4.1439
                     A          A          A          A          A   
    1  O  1  S   -0.000000   0.247554   0.000000  -0.241352   0.000000
    2  O  1  S   -0.000000   0.583391   0.000000  -0.334726   0.000000
    3  O  1  S   -0.000000   0.227680   0.000000   0.003340   0.000000
    4  O  1  S   -0.000000   3.814443   0.000000   0.835218   0.000000
    5  O  1  X   -0.604293  -0.000000   0.000000   0.000000  -0.471014
    6  O  1  Y    0.000000   0.000000   0.000000   0.000000   0.000000
    7  O  1  Z    0.000000  -0.782912   0.000000  -0.389491   0.000000
    8  O  1  X    1.635241   0.000000   0.000000   0.000000   0.121404
    9  O  1  Y    0.000000   0.000000   0.000000   0.000000   0.000000
   10  O  1  Z   -0.000000   1.548254   0.000000   0.221258   0.000000
   11  O  1  X    0.578745   0.000000   0.000000   0.000000  -0.369457
   12  O  1  Y    0.000000   0.000000   0.000000   0.000000   0.000000
   13  O  1  Z   -0.000000   0.640541   0.000000  -0.062197   0.000000
   14  O  1 XX   -0.000000   0.074592   0.000000  -0.122697   0.000000
   15  O  1 YY    0.000000  -0.120571   0.000000   0.048425   0.000000
   16  O  1 ZZ    0.000000   0.045980   0.000000   0.074272   0.000000
   17  O  1 XY    0.000000   0.000000  -0.102514   0.000000   0.000000
   18  O  1 XZ    0.172216   0.000000   0.000000  -0.000000   0.009873
   19  O  1 YZ    0.000000   0.000000   0.000000   0.000000   0.000000
   20  O  1 XX   -0.000000   0.452544   0.000000   1.180696   0.000000
   21  O  1 YY    0.000000  -0.181700   0.000000  -0.474770  -0.000000
   22  O  1 ZZ    0.000000  -0.270844   0.000000  -0.705926   0.000000
   23  O  1 XY    0.000000   0.000000   1.039770   0.000000   0.000000
   24  O  1 XZ   -0.202106  -0.000000   0.000000   0.000000   0.139761
   25  O  1 YZ    0.000000   0.000000   0.000000   0.000000   0.000000
   26  O  1 XXX  -0.002712   0.000000   0.000000   0.000000  -0.115557
   27  O  1 YYY   0.000000   0.000000   0.000000   0.000000   0.000000
   28  O  1 ZZZ   0.000000   0.047030   0.000000   0.045994   0.000000
   29  O  1 XXY   0.000000   0.000000   0.000000   0.000000   0.000000
   30  O  1 XXZ  -0.000000  -0.013997   0.000000  -0.161790   0.000000
   31  O  1 YYX  -0.020634  -0.000000   0.000000  -0.000000   0.167758
   32  O  1 YYZ   0.000000  -0.049100   0.000000   0.100082   0.000000
   33  O  1 ZZX   0.024273   0.000000   0.000000   0.000000  -0.012721
   34  O  1 ZZY   0.000000   0.000000   0.000000   0.000000   0.000000
   35  O  1 XYZ   0.000000   0.000000  -0.054075   0.000000   0.000000
   36  H  2  S   -0.156906  -0.017192   0.000000  -0.172737  -0.056200
   37  H  2  S    1.544359  -2.026944   0.000000  -0.425081   0.196980
   38  H  2  S    0.365958  -0.301239   0.000000   0.039228  -0.001268
   39  H  2  X   -0.424148   0.541011   0.000000  -0.256720  -0.299941
   40  H  2  Y    0.000000   0.000000  -0.018020   0.000000   0.000000
   41  H  2  Z    0.441023  -0.150348   0.000000   0.493200  -0.241916
   42  H  2  X    1.165753  -1.250758   0.000000   0.311579   0.597683
   43  H  2  Y    0.000000   0.000000   0.533674   0.000000   0.000000
   44  H  2  Z   -1.036288   0.978701   0.000000   0.140031   0.446797
   45  H  2 XX    0.104904  -0.001489   0.000000   0.543543   0.543855
   46  H  2 YY   -0.417093   0.169258   0.000000   0.071935  -0.037240
   47  H  2 ZZ    0.312189  -0.167769   0.000000  -0.615478  -0.506615
   48  H  2 XY    0.000000   0.000000   0.602479   0.000000   0.000000
   49  H  2 XZ   -0.306508   0.338107   0.000000  -0.221513   0.516904
   50  H  2 YZ    0.000000   0.000000  -0.706679   0.000000   0.000000
   51  H  3  S    0.156906  -0.017192   0.000000  -0.172737   0.056200
   52  H  3  S   -1.544359  -2.026944   0.000000  -0.425081  -0.196980
   53  H  3  S   -0.365958  -0.301239   0.000000   0.039228   0.001268
   54  H  3  X   -0.424148  -0.541011   0.000000   0.256720  -0.299941
   55  H  3  Y    0.000000   0.000000   0.018020   0.000000   0.000000
   56  H  3  Z   -0.441023  -0.150348   0.000000   0.493200   0.241916
   57  H  3  X    1.165753   1.250758   0.000000  -0.311579   0.597683
   58  H  3  Y    0.000000   0.000000  -0.533674   0.000000   0.000000
   59  H  3  Z    1.036288   0.978701   0.000000   0.140031  -0.446797
   60  H  3 XX   -0.104904  -0.001489   0.000000   0.543543  -0.543855
   61  H  3 YY    0.417093   0.169258   0.000000   0.071935   0.037240
   62  H  3 ZZ   -0.312189  -0.167769   0.000000  -0.615478   0.506615
   63  H  3 XY    0.000000   0.000000   0.602479   0.000000   0.000000
   64  H  3 XZ   -0.306508  -0.338107   0.000000   0.221513   0.516904
   65  H  3 YZ    0.000000   0.000000   0.706679   0.000000   0.000000

                     41         42         43         44         45
                    4.2091     4.4110     4.6557     4.7682     5.0330
                     A          A          A          A          A   
    1  O  1  S    0.000000  -0.000000   0.283298  -0.066739  -0.000000
    2  O  1  S    0.000000  -0.000000   1.086805   0.342919  -0.000000
    3  O  1  S    0.000000   0.000000   0.740937   0.541673   0.000000
    4  O  1  S    0.000000  -0.000000   3.399484   3.637562   0.000000
    5  O  1  X    0.000000   0.124380   0.000000   0.000000  -0.703761
    6  O  1  Y   -0.734088   0.000000  -0.000000  -0.000000  -0.000000
    7  O  1  Z    0.000000   0.000000   0.280255  -0.671558  -0.000000
    8  O  1  X    0.000000   2.133849  -0.000000  -0.000000   2.552541
    9  O  1  Y    1.441462   0.000000  -0.000000  -0.000000  -0.000000
   10  O  1  Z    0.000000  -0.000000   0.884633   2.246222   0.000000
   11  O  1  X    0.000000   1.426844   0.000000  -0.000000   0.969336
   12  O  1  Y   -0.105879   0.000000  -0.000000  -0.000000  -0.000000
   13  O  1  Z    0.000000  -0.000000   0.889936   0.991846   0.000000
   14  O  1 XX    0.000000   0.000000  -0.149384  -0.026378  -0.000000
   15  O  1 YY    0.000000  -0.000000   0.113387   0.099898  -0.000000
   16  O  1 ZZ    0.000000   0.000000   0.035998  -0.073520  -0.000000
   17  O  1 XY    0.000000   0.000000  -0.000000  -0.000000  -0.000000
   18  O  1 XZ    0.000000  -0.214207  -0.000000  -0.000000  -0.187966
   19  O  1 YZ   -0.083575   0.000000  -0.000000  -0.000000  -0.000000
   20  O  1 XX    0.000000  -0.000000   0.944437  -0.197936   0.000000
   21  O  1 YY    0.000000   0.000000  -0.608149  -0.615193  -0.000000
   22  O  1 ZZ    0.000000   0.000000  -0.336288   0.813129   0.000000
   23  O  1 XY    0.000000   0.000000  -0.000000  -0.000000  -0.000000
   24  O  1 XZ    0.000000   1.220528  -0.000000  -0.000000   1.201171
   25  O  1 YZ    0.656115   0.000000  -0.000000  -0.000000  -0.000000
   26  O  1 XXX   0.000000   0.047889  -0.000000  -0.000000  -0.311484
   27  O  1 YYY   0.293258   0.000000  -0.000000  -0.000000  -0.000000
   28  O  1 ZZZ   0.000000   0.000000   0.083533  -0.366621  -0.000000
   29  O  1 XXY  -0.191255   0.000000  -0.000000  -0.000000  -0.000000
   30  O  1 XXZ   0.000000   0.000000   0.326542   0.133720   0.000000
   31  O  1 YYX   0.000000  -0.270350  -0.000000  -0.000000   0.623957
   32  O  1 YYZ   0.000000   0.000000  -0.438613   0.358154  -0.000000
   33  O  1 ZZX   0.000000   0.206100   0.000000   0.000000  -0.206058
   34  O  1 ZZY  -0.202193   0.000000  -0.000000  -0.000000  -0.000000
   35  O  1 XYZ   0.000000   0.000000  -0.000000  -0.000000  -0.000000
   36  H  2  S    0.000000  -0.026592  -0.013499  -0.155493   0.301071
   37  H  2  S    0.000000   3.237469  -2.314451  -2.188826   2.164095
   38  H  2  S    0.000000   0.260087  -0.117280  -0.108641   0.019230
   39  H  2  X    0.000000   0.342154  -0.224697  -0.614994   0.464293
   40  H  2  Y   -0.167538   0.000000  -0.000000  -0.000000  -0.000000
   41  H  2  Z    0.000000  -0.363079   0.485598   0.159501  -0.348501
   42  H  2  X    0.000000   1.739430  -0.883471  -0.876470   0.743575
   43  H  2  Y   -0.299970   0.000000  -0.000000  -0.000000  -0.000000
   44  H  2  Z    0.000000  -0.953142   0.829972   0.324340  -0.793341
   45  H  2 XX    0.000000   0.842361  -0.184670  -0.524317  -0.118579
   46  H  2 YY    0.000000  -0.742261   0.532106   0.040079   0.024092
   47  H  2 ZZ    0.000000  -0.100100  -0.347436   0.484237   0.094488
   48  H  2 XY   -0.590483   0.000000  -0.000000  -0.000000  -0.000000
   49  H  2 XZ    0.000000  -0.702604   0.803262   0.310638  -0.461217
   50  H  2 YZ    0.349119   0.000000  -0.000000  -0.000000  -0.000000
   51  H  3  S    0.000000   0.026592  -0.013499  -0.155493  -0.301071
   52  H  3  S    0.000000  -3.237469  -2.314451  -2.188826  -2.164095
   53  H  3  S    0.000000  -0.260087  -0.117280  -0.108641  -0.019230
   54  H  3  X    0.000000   0.342154   0.224697   0.614994   0.464293
   55  H  3  Y   -0.167538   0.000000  -0.000000  -0.000000  -0.000000
   56  H  3  Z    0.000000   0.363079   0.485598   0.159501   0.348501
   57  H  3  X    0.000000   1.739430   0.883471   0.876470   0.743575
   58  H  3  Y   -0.299970   0.000000  -0.000000  -0.000000  -0.000000
   59  H  3  Z    0.000000   0.953142   0.829972   0.324340   0.793341
   60  H  3 XX    0.000000  -0.842361  -0.184670  -0.524317   0.118579
   61  H  3 YY    0.000000   0.742261   0.532106   0.040079  -0.024092
   62  H  3 ZZ    0.000000   0.100100  -0.347436   0.484237  -0.094488
   63  H  3 XY    0.590483   0.000000  -0.000000  -0.000000  -0.000000
   64  H  3 XZ    0.000000  -0.702604  -0.803262  -0.310638  -0.461217
   65  H  3 YZ    0.349119   0.000000  -0.000000  -0.000000  -0.000000

                     46         47         48         49         50
                    5.5532     6.0861     6.4046     6.4201     6.5012
                     A          A          A          A          A   
    1  O  1  S    0.000000   0.458663  -0.000000  -0.000000  -0.000000
    2  O  1  S    0.000000   0.680286  -0.000000  -0.000000  -0.000000
    3  O  1  S    0.000000  -0.185936  -0.000000  -0.000000  -0.000000
    4  O  1  S    0.000000   0.480369  -0.000000  -0.000000  -0.000000
    5  O  1  X    0.000000   0.000000  -0.000000  -0.000000  -0.000000
[...]
      !! USE Coefp TO PREPARE DIABATIC REFERENCES !!
     ------------------------------------------------

 State #    1  Energy =     -75.878569789  S =  0.500

      Det      Coef        Coefp    Occupancy (Ignoring core)
      ---      ----        ----    --------- --------- -----
        1   -0.988749    0.988749  222+00
      173    0.071512    0.071512  202+02
      168    0.040055    0.040055  2+-++-
       68    0.038415    0.038415  2-++-+
       63    0.038199    0.038199  220+20
        8    0.032601   -0.032601  2-2+0+
       98   -0.031463    0.031463  +-2+-+
       47    0.031011   -0.031011  +22-+0
      170   -0.029983    0.029983  -+2++-
       93   -0.029791    0.029791  +2-+20
       95    0.029787    0.029787  022+20
       65    0.028490    0.028490  -2++20
      157    0.025666    0.025666  220+02
       79    0.024628    0.024628  202+20
       36   -0.023595   -0.023595  2+2-0+
        3   -0.023271   -0.023271  22-++0
      241   -0.020684   -0.020684  2+++--

 State #    2  Energy =     -75.794918001  S =  0.500

      Det      Coef        Coefp    Occupancy (Ignoring core)
      ---      ----        ----    --------- --------- -----
       16   -0.990146   -0.990146  22+200
      203    0.073024   -0.073024  20+202
      198    0.039258   -0.039258  2+02+-
       53    0.035089   -0.035089  +-220+
       18   -0.034544    0.034544  2202+0
       46    0.033981    0.033981  +22200
      200   -0.033022   -0.033022  -++2+-
      128   -0.031459   -0.031459  +-+2-+
      125    0.030579   -0.030579  02+220
      123   -0.029205   -0.029205  +20220
       23    0.025097    0.025097  2-+20+
      109    0.023862   -0.023862  20+220
       28   -0.020883    0.020883  2-02++

 State #    3  Energy =     -75.644674929  S =  0.500

      Det      Coef        Coefp    Occupancy (Ignoring core)
      ---      ----        ----    --------- --------- -----
       31    0.992095   -0.992095  2+2200
       52   -0.046463   -0.046463  +2-20+
      113    0.044176    0.044176  20+2-+
      108   -0.042523    0.042523  2+0220
      143    0.031300   -0.031300  +022-+
      140   -0.029760   -0.029760  0+2220
      110    0.029286    0.029286  -++220
      138   -0.028588   -0.028588  ++-220
      202   -0.027946    0.027946  2+0202
       43   -0.027147    0.027147  20-2++
      211    0.025072   -0.025072  +2+20-
        6   -0.024381    0.024381  22200+
       33    0.022341   -0.022341  2+-2+0
       24    0.021391   -0.021391  -2+20+
$REFDET GROUP NOT FOUND. LEAVING DIABATIZATION.
 CPU     0: STEP CPU TIME=     0.02 TOTAL CPU TIME=          8.7 (      0.1 MIN)
 TOTAL WALL CLOCK TIME=          9.7 SECONDS, CPU UTILIZATION IS    90.38%

TRANSITION DIPOLES BETWEEN ADIABATS (in A.U.):

STATE PAIR      X         Y         Z
    1    1 -0.000000  0.000000  0.298415
    2    1 -0.000000  0.174198  0.000000
    2    2 -0.000000 -0.000000  0.509633
    3    1  0.000000  0.000000  0.000000
    3    2  0.079790 -0.000000 -0.000000
    3    3 -0.000000 -0.000000  0.099403


TRANSITION DIPOLES BETWEEN DIABATS (in A.U.):

STATE PAIR      X         Y         Z
    1    1  0.000000  0.000000  0.000000
    2    1  0.000000  0.000000  0.000000
    2    2  0.000034 -0.000000  0.000384
    3    1  0.000000  0.000000  0.000000
    3    2  0.001144 -0.000000  0.000404
    3    3 -0.000000 -0.000000  0.027550

TRANSITION DIPOLES BETWEEN DIRECT MAX. DIABATS (in A.U.):

STATE PAIR      X         Y         Z
    1    1  0.000000  0.000000  0.000000
    2    1  0.000000  0.000000  0.000000
    2    2  0.000000  0.000000  0.000000
    3    1  0.000000  0.000000  0.000000
    3    2  0.000000  0.000000  0.000000
    3    3  0.000000  0.000000  0.000000
 No $TRANST Group Found.
 Quit without doing spin-orbit coupling
 ..... DONE WITH MP2 ENERGY .....
 CPU     0: STEP CPU TIME=     0.01 TOTAL CPU TIME=          8.8 (      0.1 MIN)
 TOTAL WALL CLOCK TIME=          9.7 SECONDS, CPU UTILIZATION IS    90.39%
            100000000  WORDS OF DYNAMIC MEMORY USED
 EXECUTION OF GAMESS TERMINATED NORMALLY Thu May 26 01:13:06 2022
 DDI: 641920 bytes (0.6 MB / 0 MWords) used by master data server.
Note: The following floating-point exceptions are signalling: IEEE_DENORMAL

 ----------------------------------------
 CPU timing information for all processes
 ========================================
 0: 8.301 + 0.452 = 8.754
 1: 8.188 + 0.323 = 8.511
 2: 8.76 + 0.445 = 8.521
 3: 8.189 + 0.243 = 8.433
 ----------------------------------------
Note: The following floating-point exceptions are signalling: IEEE_DENORMAL
Note: The following floating-point exceptions are signalling: IEEE_DENORMAL
Note: The following floating-point exceptions are signalling: IEEE_DENORMAL
 ddikick.x: exited gracefully.
unset echo
----- accounting info -----
Files used on the master node cpu001 were:
-rw-r--r-- 1 bjb2chen nooijen   70208 May 26 01:12 /scratch/bjb2chen/h2ocat_cct_gmcpt_6o7e_C2vinC1_3st_dmo.F05
-rw-r--r-- 1 bjb2chen nooijen  193712 May 26 01:13 /scratch/bjb2chen/h2ocat_cct_gmcpt_6o7e_C2vinC1_3st_dmo.F09
-rw-r--r-- 1 bjb2chen nooijen  180016 May 26 01:13 /scratch/bjb2chen/h2ocat_cct_gmcpt_6o7e_C2vinC1_3st_dmo.F09.001
-rw-r--r-- 1 bjb2chen nooijen  180016 May 26 01:13 /scratch/bjb2chen/h2ocat_cct_gmcpt_6o7e_C2vinC1_3st_dmo.F09.002
-rw-r--r-- 1 bjb2chen nooijen  180016 May 26 01:13 /scratch/bjb2chen/h2ocat_cct_gmcpt_6o7e_C2vinC1_3st_dmo.F09.003
-rw-r--r-- 1 bjb2chen nooijen 2290400 May 26 01:13 /scratch/bjb2chen/h2ocat_cct_gmcpt_6o7e_C2vinC1_3st_dmo.F10
-rw-r--r-- 1 bjb2chen nooijen  212184 May 26 01:13 /scratch/bjb2chen/h2ocat_cct_gmcpt_6o7e_C2vinC1_3st_dmo.F13
-rw-r--r-- 1 bjb2chen nooijen  212184 May 26 01:13 /scratch/bjb2chen/h2ocat_cct_gmcpt_6o7e_C2vinC1_3st_dmo.F13.001
-rw-r--r-- 1 bjb2chen nooijen  212184 May 26 01:13 /scratch/bjb2chen/h2ocat_cct_gmcpt_6o7e_C2vinC1_3st_dmo.F13.002
-rw-r--r-- 1 bjb2chen nooijen  212184 May 26 01:13 /scratch/bjb2chen/h2ocat_cct_gmcpt_6o7e_C2vinC1_3st_dmo.F13.003
-rw-r--r-- 1 bjb2chen nooijen  180248 May 26 01:13 /scratch/bjb2chen/h2ocat_cct_gmcpt_6o7e_C2vinC1_3st_dmo.F15
-rw-r--r-- 1 bjb2chen nooijen       0 May 26 01:12 /scratch/bjb2chen/h2ocat_cct_gmcpt_6o7e_C2vinC1_3st_dmo.F16
-rw-r--r-- 1 bjb2chen nooijen    2408 May 26 01:13 /scratch/bjb2chen/h2ocat_cct_gmcpt_6o7e_C2vinC1_3st_dmo.F70
-rw-r--r-- 1 bjb2chen nooijen    2408 May 26 01:13 /scratch/bjb2chen/h2ocat_cct_gmcpt_6o7e_C2vinC1_3st_dmo.F70.001
-rw-r--r-- 1 bjb2chen nooijen    2408 May 26 01:13 /scratch/bjb2chen/h2ocat_cct_gmcpt_6o7e_C2vinC1_3st_dmo.F70.002
-rw-r--r-- 1 bjb2chen nooijen    2408 May 26 01:13 /scratch/bjb2chen/h2ocat_cct_gmcpt_6o7e_C2vinC1_3st_dmo.F70.003
-rw-r--r-- 1 bjb2chen nooijen    2408 May 26 01:13 /scratch/bjb2chen/h2ocat_cct_gmcpt_6o7e_C2vinC1_3st_dmo.F71
-rw-r--r-- 1 bjb2chen nooijen    2408 May 26 01:13 /scratch/bjb2chen/h2ocat_cct_gmcpt_6o7e_C2vinC1_3st_dmo.F71.001
-rw-r--r-- 1 bjb2chen nooijen    2408 May 26 01:13 /scratch/bjb2chen/h2ocat_cct_gmcpt_6o7e_C2vinC1_3st_dmo.F71.002
-rw-r--r-- 1 bjb2chen nooijen    2408 May 26 01:13 /scratch/bjb2chen/h2ocat_cct_gmcpt_6o7e_C2vinC1_3st_dmo.F71.003
-rw-r--r-- 1 bjb2chen nooijen    4808 May 26 01:13 /scratch/bjb2chen/h2ocat_cct_gmcpt_6o7e_C2vinC1_3st_dmo.F72
-rw-r--r-- 1 bjb2chen nooijen    4808 May 26 01:13 /scratch/bjb2chen/h2ocat_cct_gmcpt_6o7e_C2vinC1_3st_dmo.F72.001
-rw-r--r-- 1 bjb2chen nooijen    4808 May 26 01:13 /scratch/bjb2chen/h2ocat_cct_gmcpt_6o7e_C2vinC1_3st_dmo.F72.002
-rw-r--r-- 1 bjb2chen nooijen    4808 May 26 01:13 /scratch/bjb2chen/h2ocat_cct_gmcpt_6o7e_C2vinC1_3st_dmo.F72.003
-rw-r--r-- 1 bjb2chen nooijen    4808 May 26 01:13 /scratch/bjb2chen/h2ocat_cct_gmcpt_6o7e_C2vinC1_3st_dmo.F73
-rw-r--r-- 1 bjb2chen nooijen    4808 May 26 01:13 /scratch/bjb2chen/h2ocat_cct_gmcpt_6o7e_C2vinC1_3st_dmo.F73.001
-rw-r--r-- 1 bjb2chen nooijen    4808 May 26 01:13 /scratch/bjb2chen/h2ocat_cct_gmcpt_6o7e_C2vinC1_3st_dmo.F73.002
-rw-r--r-- 1 bjb2chen nooijen    4808 May 26 01:13 /scratch/bjb2chen/h2ocat_cct_gmcpt_6o7e_C2vinC1_3st_dmo.F73.003
-rw-r--r-- 1 bjb2chen nooijen   91808 May 26 01:13 /scratch/bjb2chen/h2ocat_cct_gmcpt_6o7e_C2vinC1_3st_dmo.F74
-rw-r--r-- 1 bjb2chen nooijen   91808 May 26 01:13 /scratch/bjb2chen/h2ocat_cct_gmcpt_6o7e_C2vinC1_3st_dmo.F74.001
-rw-r--r-- 1 bjb2chen nooijen   93040 May 26 01:13 /scratch/bjb2chen/h2ocat_cct_gmcpt_6o7e_C2vinC1_3st_dmo.F74.002
-rw-r--r-- 1 bjb2chen nooijen   93040 May 26 01:13 /scratch/bjb2chen/h2ocat_cct_gmcpt_6o7e_C2vinC1_3st_dmo.F74.003
-rw-r--r-- 1 bjb2chen nooijen  720024 May 26 01:13 /scratch/bjb2chen/h2ocat_cct_gmcpt_6o7e_C2vinC1_3st_dmo.F75
-rw-r--r-- 1 bjb2chen nooijen  720024 May 26 01:13 /scratch/bjb2chen/h2ocat_cct_gmcpt_6o7e_C2vinC1_3st_dmo.F75.001
-rw-r--r-- 1 bjb2chen nooijen  720024 May 26 01:13 /scratch/bjb2chen/h2ocat_cct_gmcpt_6o7e_C2vinC1_3st_dmo.F75.002
-rw-r--r-- 1 bjb2chen nooijen  720024 May 26 01:13 /scratch/bjb2chen/h2ocat_cct_gmcpt_6o7e_C2vinC1_3st_dmo.F75.003
-rw-r--r-- 1 bjb2chen nooijen   14448 May 26 01:13 /scratch/bjb2chen/h2ocat_cct_gmcpt_6o7e_C2vinC1_3st_dmo.F76
-rw-r--r-- 1 bjb2chen nooijen   14448 May 26 01:13 /scratch/bjb2chen/h2ocat_cct_gmcpt_6o7e_C2vinC1_3st_dmo.F76.001
-rw-r--r-- 1 bjb2chen nooijen   14448 May 26 01:13 /scratch/bjb2chen/h2ocat_cct_gmcpt_6o7e_C2vinC1_3st_dmo.F76.002
-rw-r--r-- 1 bjb2chen nooijen   14448 May 26 01:13 /scratch/bjb2chen/h2ocat_cct_gmcpt_6o7e_C2vinC1_3st_dmo.F76.003
-rw-r--r-- 1 bjb2chen nooijen       0 May 26 01:12 /scratch/bjb2chen/h2ocat_cct_gmcpt_6o7e_C2vinC1_3st_dmo.F77
-rw-r--r-- 1 bjb2chen nooijen       0 May 26 01:12 /scratch/bjb2chen/h2ocat_cct_gmcpt_6o7e_C2vinC1_3st_dmo.F77.001
-rw-r--r-- 1 bjb2chen nooijen       0 May 26 01:12 /scratch/bjb2chen/h2ocat_cct_gmcpt_6o7e_C2vinC1_3st_dmo.F77.002
-rw-r--r-- 1 bjb2chen nooijen       0 May 26 01:12 /scratch/bjb2chen/h2ocat_cct_gmcpt_6o7e_C2vinC1_3st_dmo.F77.003
-rw-r--r-- 1 bjb2chen nooijen    3720 May 26 01:13 /scratch/bjb2chen/h2ocat_cct_gmcpt_6o7e_C2vinC1_3st_dmo.F78
-rw-r--r-- 1 bjb2chen nooijen    3720 May 26 01:13 /scratch/bjb2chen/h2ocat_cct_gmcpt_6o7e_C2vinC1_3st_dmo.F78.001
-rw-r--r-- 1 bjb2chen nooijen    3720 May 26 01:13 /scratch/bjb2chen/h2ocat_cct_gmcpt_6o7e_C2vinC1_3st_dmo.F78.002
-rw-r--r-- 1 bjb2chen nooijen    3720 May 26 01:13 /scratch/bjb2chen/h2ocat_cct_gmcpt_6o7e_C2vinC1_3st_dmo.F78.003
-rw-r--r-- 1 bjb2chen nooijen    9608 May 26 01:13 /scratch/bjb2chen/h2ocat_cct_gmcpt_6o7e_C2vinC1_3st_dmo.F79
-rw-r--r-- 1 bjb2chen nooijen    9608 May 26 01:13 /scratch/bjb2chen/h2ocat_cct_gmcpt_6o7e_C2vinC1_3st_dmo.F79.001
-rw-r--r-- 1 bjb2chen nooijen    9608 May 26 01:13 /scratch/bjb2chen/h2ocat_cct_gmcpt_6o7e_C2vinC1_3st_dmo.F79.002
-rw-r--r-- 1 bjb2chen nooijen    9608 May 26 01:13 /scratch/bjb2chen/h2ocat_cct_gmcpt_6o7e_C2vinC1_3st_dmo.F79.003
-rw-r--r-- 1 bjb2chen nooijen     104 May 26 01:13 /scratch/bjb2chen/h2ocat_cct_gmcpt_6o7e_C2vinC1_3st_dmo.F80
-rw-r--r-- 1 bjb2chen nooijen     104 May 26 01:13 /scratch/bjb2chen/h2ocat_cct_gmcpt_6o7e_C2vinC1_3st_dmo.F80.001
-rw-r--r-- 1 bjb2chen nooijen     104 May 26 01:13 /scratch/bjb2chen/h2ocat_cct_gmcpt_6o7e_C2vinC1_3st_dmo.F80.002
-rw-r--r-- 1 bjb2chen nooijen     104 May 26 01:13 /scratch/bjb2chen/h2ocat_cct_gmcpt_6o7e_C2vinC1_3st_dmo.F80.003
-rw-r--r-- 1 bjb2chen nooijen   53840 May 26 01:13 /scratch/bjb2chen/h2ocat_cct_gmcpt_6o7e_C2vinC1_3st_dmo.F81
-rw-r--r-- 1 bjb2chen nooijen   53840 May 26 01:13 /scratch/bjb2chen/h2ocat_cct_gmcpt_6o7e_C2vinC1_3st_dmo.F81.001
-rw-r--r-- 1 bjb2chen nooijen   53840 May 26 01:13 /scratch/bjb2chen/h2ocat_cct_gmcpt_6o7e_C2vinC1_3st_dmo.F81.002
-rw-r--r-- 1 bjb2chen nooijen   53840 May 26 01:13 /scratch/bjb2chen/h2ocat_cct_gmcpt_6o7e_C2vinC1_3st_dmo.F81.003
-rw-r--r-- 1 bjb2chen nooijen      16 May 26 01:13 /scratch/bjb2chen/h2ocat_cct_gmcpt_6o7e_C2vinC1_3st_dmo.F82
-rw-r--r-- 1 bjb2chen nooijen      16 May 26 01:13 /scratch/bjb2chen/h2ocat_cct_gmcpt_6o7e_C2vinC1_3st_dmo.F82.001
-rw-r--r-- 1 bjb2chen nooijen      16 May 26 01:13 /scratch/bjb2chen/h2ocat_cct_gmcpt_6o7e_C2vinC1_3st_dmo.F82.002
-rw-r--r-- 1 bjb2chen nooijen      16 May 26 01:13 /scratch/bjb2chen/h2ocat_cct_gmcpt_6o7e_C2vinC1_3st_dmo.F82.003
-rw-r--r-- 1 bjb2chen nooijen   10376 May 26 01:13 /scratch/bjb2chen/h2ocat_cct_gmcpt_6o7e_C2vinC1_3st_dmo.F83
-rw-r--r-- 1 bjb2chen nooijen   10376 May 26 01:13 /scratch/bjb2chen/h2ocat_cct_gmcpt_6o7e_C2vinC1_3st_dmo.F83.001
-rw-r--r-- 1 bjb2chen nooijen   10376 May 26 01:13 /scratch/bjb2chen/h2ocat_cct_gmcpt_6o7e_C2vinC1_3st_dmo.F83.002
-rw-r--r-- 1 bjb2chen nooijen   10376 May 26 01:13 /scratch/bjb2chen/h2ocat_cct_gmcpt_6o7e_C2vinC1_3st_dmo.F83.003
-rw-r--r-- 1 bjb2chen nooijen   45488 May 26 01:13 /scratch/bjb2chen/h2ocat_cct_gmcpt_6o7e_C2vinC1_3st_dmo.F84
-rw-r--r-- 1 bjb2chen nooijen   45488 May 26 01:13 /scratch/bjb2chen/h2ocat_cct_gmcpt_6o7e_C2vinC1_3st_dmo.F84.001
-rw-r--r-- 1 bjb2chen nooijen   45488 May 26 01:13 /scratch/bjb2chen/h2ocat_cct_gmcpt_6o7e_C2vinC1_3st_dmo.F84.002
-rw-r--r-- 1 bjb2chen nooijen   45488 May 26 01:13 /scratch/bjb2chen/h2ocat_cct_gmcpt_6o7e_C2vinC1_3st_dmo.F84.003
-rw-r--r-- 1 bjb2chen nooijen  152304 May 26 01:13 /scratch/bjb2chen/h2ocat_cct_gmcpt_6o7e_C2vinC1_3st_dmo.F85
-rw-r--r-- 1 bjb2chen nooijen  152304 May 26 01:13 /scratch/bjb2chen/h2ocat_cct_gmcpt_6o7e_C2vinC1_3st_dmo.F85.001
-rw-r--r-- 1 bjb2chen nooijen  152304 May 26 01:13 /scratch/bjb2chen/h2ocat_cct_gmcpt_6o7e_C2vinC1_3st_dmo.F85.002
-rw-r--r-- 1 bjb2chen nooijen  152304 May 26 01:13 /scratch/bjb2chen/h2ocat_cct_gmcpt_6o7e_C2vinC1_3st_dmo.F85.003
-rw-r--r-- 1 bjb2chen nooijen  279624 May 26 01:13 /scratch/bjb2chen/h2ocat_cct_gmcpt_6o7e_C2vinC1_3st_dmo.F86
-rw-r--r-- 1 bjb2chen nooijen  278632 May 26 01:13 /scratch/bjb2chen/h2ocat_cct_gmcpt_6o7e_C2vinC1_3st_dmo.F86.001
-rw-r--r-- 1 bjb2chen nooijen  271816 May 26 01:13 /scratch/bjb2chen/h2ocat_cct_gmcpt_6o7e_C2vinC1_3st_dmo.F86.002
-rw-r--r-- 1 bjb2chen nooijen  255752 May 26 01:13 /scratch/bjb2chen/h2ocat_cct_gmcpt_6o7e_C2vinC1_3st_dmo.F86.003
-rw-r--r-- 1 bjb2chen nooijen     656 May 26 01:13 /scratch/bjb2chen/h2ocat_cct_gmcpt_6o7e_C2vinC1_3st_dmo.F87
-rw-r--r-- 1 bjb2chen nooijen     656 May 26 01:13 /scratch/bjb2chen/h2ocat_cct_gmcpt_6o7e_C2vinC1_3st_dmo.F87.001
-rw-r--r-- 1 bjb2chen nooijen     656 May 26 01:13 /scratch/bjb2chen/h2ocat_cct_gmcpt_6o7e_C2vinC1_3st_dmo.F87.002
-rw-r--r-- 1 bjb2chen nooijen     656 May 26 01:13 /scratch/bjb2chen/h2ocat_cct_gmcpt_6o7e_C2vinC1_3st_dmo.F87.003
-rw-r--r-- 1 bjb2chen nooijen    4944 May 26 01:13 /scratch/bjb2chen/h2ocat_cct_gmcpt_6o7e_C2vinC1_3st_dmo.F88
-rw-r--r-- 1 bjb2chen nooijen    4944 May 26 01:13 /scratch/bjb2chen/h2ocat_cct_gmcpt_6o7e_C2vinC1_3st_dmo.F88.001
-rw-r--r-- 1 bjb2chen nooijen    4944 May 26 01:13 /scratch/bjb2chen/h2ocat_cct_gmcpt_6o7e_C2vinC1_3st_dmo.F88.002
-rw-r--r-- 1 bjb2chen nooijen    4944 May 26 01:13 /scratch/bjb2chen/h2ocat_cct_gmcpt_6o7e_C2vinC1_3st_dmo.F88.003
-rw-r--r-- 1 bjb2chen nooijen     472 May 26 01:13 /scratch/bjb2chen/h2ocat_cct_gmcpt_6o7e_C2vinC1_3st_dmo.F89
-rw-r--r-- 1 bjb2chen nooijen     472 May 26 01:13 /scratch/bjb2chen/h2ocat_cct_gmcpt_6o7e_C2vinC1_3st_dmo.F89.001
-rw-r--r-- 1 bjb2chen nooijen     472 May 26 01:13 /scratch/bjb2chen/h2ocat_cct_gmcpt_6o7e_C2vinC1_3st_dmo.F89.002
-rw-r--r-- 1 bjb2chen nooijen     472 May 26 01:13 /scratch/bjb2chen/h2ocat_cct_gmcpt_6o7e_C2vinC1_3st_dmo.F89.003
-rw-r--r-- 1 bjb2chen nooijen       0 May 26 01:12 /scratch/bjb2chen/h2ocat_cct_gmcpt_6o7e_C2vinC1_3st_dmo.F90
-rw-r--r-- 1 bjb2chen nooijen       0 May 26 01:12 /scratch/bjb2chen/h2ocat_cct_gmcpt_6o7e_C2vinC1_3st_dmo.F90.001
-rw-r--r-- 1 bjb2chen nooijen       0 May 26 01:12 /scratch/bjb2chen/h2ocat_cct_gmcpt_6o7e_C2vinC1_3st_dmo.F90.002
-rw-r--r-- 1 bjb2chen nooijen       0 May 26 01:12 /scratch/bjb2chen/h2ocat_cct_gmcpt_6o7e_C2vinC1_3st_dmo.F90.003
-rw-r--r-- 1 bjb2chen nooijen    5560 May 26 01:13 /scratch/bjb2chen/h2ocat_cct_gmcpt_6o7e_C2vinC1_3st_dmo.F91
-rw-r--r-- 1 bjb2chen nooijen    5560 May 26 01:13 /scratch/bjb2chen/h2ocat_cct_gmcpt_6o7e_C2vinC1_3st_dmo.F91.001
-rw-r--r-- 1 bjb2chen nooijen    5560 May 26 01:13 /scratch/bjb2chen/h2ocat_cct_gmcpt_6o7e_C2vinC1_3st_dmo.F91.002
-rw-r--r-- 1 bjb2chen nooijen    5560 May 26 01:13 /scratch/bjb2chen/h2ocat_cct_gmcpt_6o7e_C2vinC1_3st_dmo.F91.003
-rw-r--r-- 1 bjb2chen nooijen    7128 May 26 01:13 /scratch/bjb2chen/h2ocat_cct_gmcpt_6o7e_C2vinC1_3st_dmo.F92
-rw-r--r-- 1 bjb2chen nooijen    7128 May 26 01:13 /scratch/bjb2chen/h2ocat_cct_gmcpt_6o7e_C2vinC1_3st_dmo.F92.001
-rw-r--r-- 1 bjb2chen nooijen    7128 May 26 01:13 /scratch/bjb2chen/h2ocat_cct_gmcpt_6o7e_C2vinC1_3st_dmo.F92.002
-rw-r--r-- 1 bjb2chen nooijen    7128 May 26 01:13 /scratch/bjb2chen/h2ocat_cct_gmcpt_6o7e_C2vinC1_3st_dmo.F92.003
-rw-r--r-- 1 bjb2chen nooijen    5560 May 26 01:13 /scratch/bjb2chen/h2ocat_cct_gmcpt_6o7e_C2vinC1_3st_dmo.F93
-rw-r--r-- 1 bjb2chen nooijen    5560 May 26 01:13 /scratch/bjb2chen/h2ocat_cct_gmcpt_6o7e_C2vinC1_3st_dmo.F93.001
-rw-r--r-- 1 bjb2chen nooijen    5560 May 26 01:13 /scratch/bjb2chen/h2ocat_cct_gmcpt_6o7e_C2vinC1_3st_dmo.F93.002
-rw-r--r-- 1 bjb2chen nooijen    5560 May 26 01:13 /scratch/bjb2chen/h2ocat_cct_gmcpt_6o7e_C2vinC1_3st_dmo.F93.003
-rw-r--r-- 1 bjb2chen nooijen    3880 May 26 01:13 /scratch/bjb2chen/h2ocat_cct_gmcpt_6o7e_C2vinC1_3st_dmo.F94
-rw-r--r-- 1 bjb2chen nooijen    3880 May 26 01:13 /scratch/bjb2chen/h2ocat_cct_gmcpt_6o7e_C2vinC1_3st_dmo.F94.001
-rw-r--r-- 1 bjb2chen nooijen    3880 May 26 01:13 /scratch/bjb2chen/h2ocat_cct_gmcpt_6o7e_C2vinC1_3st_dmo.F94.002
-rw-r--r-- 1 bjb2chen nooijen    3880 May 26 01:13 /scratch/bjb2chen/h2ocat_cct_gmcpt_6o7e_C2vinC1_3st_dmo.F94.003
-rw-r--r-- 1 bjb2chen nooijen    1640 May 26 01:13 /scratch/bjb2chen/h2ocat_cct_gmcpt_6o7e_C2vinC1_3st_dmo.F95
-rw-r--r-- 1 bjb2chen nooijen    1640 May 26 01:13 /scratch/bjb2chen/h2ocat_cct_gmcpt_6o7e_C2vinC1_3st_dmo.F95.001
-rw-r--r-- 1 bjb2chen nooijen    1640 May 26 01:13 /scratch/bjb2chen/h2ocat_cct_gmcpt_6o7e_C2vinC1_3st_dmo.F95.002
-rw-r--r-- 1 bjb2chen nooijen    1640 May 26 01:13 /scratch/bjb2chen/h2ocat_cct_gmcpt_6o7e_C2vinC1_3st_dmo.F95.003
-rw-r--r-- 1 bjb2chen nooijen    7240 May 26 01:13 /scratch/bjb2chen/h2ocat_cct_gmcpt_6o7e_C2vinC1_3st_dmo.F96
-rw-r--r-- 1 bjb2chen nooijen    7240 May 26 01:13 /scratch/bjb2chen/h2ocat_cct_gmcpt_6o7e_C2vinC1_3st_dmo.F96.001
-rw-r--r-- 1 bjb2chen nooijen    7240 May 26 01:13 /scratch/bjb2chen/h2ocat_cct_gmcpt_6o7e_C2vinC1_3st_dmo.F96.002
-rw-r--r-- 1 bjb2chen nooijen    7240 May 26 01:13 /scratch/bjb2chen/h2ocat_cct_gmcpt_6o7e_C2vinC1_3st_dmo.F96.003
-rw-r--r-- 1 bjb2chen nooijen     872 May 26 01:13 /scratch/bjb2chen/h2ocat_cct_gmcpt_6o7e_C2vinC1_3st_dmo.F97
-rw-r--r-- 1 bjb2chen nooijen     872 May 26 01:13 /scratch/bjb2chen/h2ocat_cct_gmcpt_6o7e_C2vinC1_3st_dmo.F97.001
-rw-r--r-- 1 bjb2chen nooijen     872 May 26 01:13 /scratch/bjb2chen/h2ocat_cct_gmcpt_6o7e_C2vinC1_3st_dmo.F97.002
-rw-r--r-- 1 bjb2chen nooijen     872 May 26 01:13 /scratch/bjb2chen/h2ocat_cct_gmcpt_6o7e_C2vinC1_3st_dmo.F97.003
-rw-r--r-- 1 bjb2chen nooijen    2408 May 26 01:13 /scratch/bjb2chen/h2ocat_cct_gmcpt_6o7e_C2vinC1_3st_dmo.F98
-rw-r--r-- 1 bjb2chen nooijen    2408 May 26 01:13 /scratch/bjb2chen/h2ocat_cct_gmcpt_6o7e_C2vinC1_3st_dmo.F98.001
-rw-r--r-- 1 bjb2chen nooijen    2408 May 26 01:13 /scratch/bjb2chen/h2ocat_cct_gmcpt_6o7e_C2vinC1_3st_dmo.F98.002
-rw-r--r-- 1 bjb2chen nooijen    2408 May 26 01:13 /scratch/bjb2chen/h2ocat_cct_gmcpt_6o7e_C2vinC1_3st_dmo.F98.003
-rw-r--r-- 1 bjb2chen nooijen    6024 May 26 01:13 /scratch/bjb2chen/h2ocat_cct_gmcpt_6o7e_C2vinC1_3st_dmo.F99
-rw-r--r-- 1 bjb2chen nooijen    6024 May 26 01:13 /scratch/bjb2chen/h2ocat_cct_gmcpt_6o7e_C2vinC1_3st_dmo.F99.001
-rw-r--r-- 1 bjb2chen nooijen    6024 May 26 01:13 /scratch/bjb2chen/h2ocat_cct_gmcpt_6o7e_C2vinC1_3st_dmo.F99.002
-rw-r--r-- 1 bjb2chen nooijen    6024 May 26 01:13 /scratch/bjb2chen/h2ocat_cct_gmcpt_6o7e_C2vinC1_3st_dmo.F99.003
ls: No match.
ls: No match.
ls: No match.
Thu 26 May 2022 01:13:10 AM EDT
0.290u 0.047s 0:13.06 2.5%	0+0k 144+368io 0pf+0w
