----- GAMESS execution script 'rungms' -----
This job is running on host cpu001
under operating system Linux at Sun 03 Jul 2022 10:19:53 PM EDT
Available scratch disk space (Kbyte units) at beginning of the job is
Filesystem     1K-blocks      Used Available Use% Mounted on
/dev/sdb1      960380628 220492556 691033612  25% /scratch
GAMESS temporary binary files will be written to /scratch/bjb2chen
GAMESS supplementary output files will be written to /home/bjb2chen/.gamess_ascii_files/267128
Copying input file h2o_cct_mp2_c2v_gh.inp to your run's scratch directory...
cp h2o_cct_mp2_c2v_gh.inp /scratch/bjb2chen/h2o_cct_mp2_c2v_gh.F05
unset echo
 
Assuming a single but multicore node.
 
/home/bjb2chen/gamess/ddikick.x /home/bjb2chen/gamess/gamess.00.x h2o_cct_mp2_c2v_gh -ddi 1 2 cpu001:cpus=2 -scr /scratch/bjb2chen

 Distributed Data Interface kickoff program.
 Initiating 2 compute processes on 1 nodes to run the following command:
 /home/bjb2chen/gamess/gamess.00.x h2o_cct_mp2_c2v_gh 

          ******************************************************
          *         GAMESS VERSION = 02 AUG 2018 (R2)         *
          *             FROM IOWA STATE UNIVERSITY             *
          * M.W.SCHMIDT, K.K.BALDRIDGE, J.A.BOATZ, S.T.ELBERT, *
          *   M.S.GORDON, J.H.JENSEN, S.KOSEKI, N.MATSUNAGA,   *
          *          K.A.NGUYEN, S.J.SU, T.L.WINDUS,           *
          *       TOGETHER WITH M.DUPUIS, J.A.MONTGOMERY       *
          *         J.COMPUT.CHEM.  14, 1347-1363(1993)        *
          **************** 64 BIT LINUX VERSION ****************

  SINCE 1993, STUDENTS AND POSTDOCS WORKING AT IOWA STATE UNIVERSITY
  AND ALSO IN THEIR VARIOUS JOBS AFTER LEAVING ISU HAVE MADE IMPORTANT
  CONTRIBUTIONS TO THE CODE:
     IVANA ADAMOVIC, CHRISTINE AIKENS, YURI ALEXEEV, POOJA ARORA,
     ANDREY ASADCHEV, ROB BELL, PRADIPTA BANDYOPADHYAY, JONATHAN BENTZ,
     BRETT BODE, KURT BRORSEN, CALEB CARLIN, GALINA CHABAN, WEI CHEN,
     CHEOL HO CHOI, PAUL DAY, ALBERT DEFUSCO, NUWAN DESILVA, TIM DUDLEY,
     DMITRI FEDOROV, ALEX FINDLATER, GRAHAM FLETCHER, MARK FREITAG,
     KURT GLAESEMANN, ANASTASIA GUININA,
     DAN KEMP, GRANT MERRILL, NORIYUKI MINEZAWA, JONATHAN MULLIN,
     TAKESHI NAGATA, SEAN NEDD, HEATHER NETZLOFF, BOSILJKA NJEGIC, RYAN OLSON,
     MIKE PAK, BUU PHAM,
     SPENCER PRUITT, LUKE ROSKOP, JIM SHOEMAKER, LYUDMILA SLIPCHENKO,
     TONY SMITH, SAROM SOK LEANG, JIE SONG, TETSUYA TAKETSUGU, SIMON WEBB,
     PENG XU, SOOHAENG YOO, FEDERICO ZAHARIEV

  ADDITIONAL CODE HAS BEEN PROVIDED BY COLLABORATORS IN OTHER GROUPS:
     IOWA STATE UNIVERSITY:
          JOE IVANIC, AARON WEST, LAIMUTIS BYTAUTAS, KLAUS RUEDENBERG
     UNIVERSITY OF TOKYO: KIMIHIKO HIRAO, TAKAHITO NAKAJIMA,
          TAKAO TSUNEDA, MUNEAKI KAMIYA, SUSUMU YANAGISAWA,
          KIYOSHI YAGI, MAHITO CHIBA, SEIKEN TOKURA, NAOAKI KAWAKAMI
     UNIVERSITY OF AARHUS: FRANK JENSEN
     UNIVERSITY OF IOWA: VISVALDAS KAIRYS, HUI LI
     NATIONAL INST. OF STANDARDS AND TECHNOLOGY: WALT STEVENS, DAVID GARMER
     UNIVERSITY OF PISA: BENEDETTA MENNUCCI, JACOPO TOMASI
     UNIVERSITY OF MEMPHIS: HENRY KURTZ, PRAKASHAN KORAMBATH
     UNIVERSITY OF ALBERTA: TOBY ZENG, MARIUSZ KLOBUKOWSKI
     UNIVERSITY OF NEW ENGLAND: MARK SPACKMAN
     MIE UNIVERSITY: HIROAKI UMEDA
     NAT. INST. OF ADVANCED INDUSTRIAL SCIENCE AND TECHNOLOGY: KAZUO KITAURA
     MICHIGAN STATE UNIVERSITY:
          KAROL KOWALSKI, MARTA WLOCH, JEFFREY GOUR, JESSE LUTZ,
          WEI LI, JUN SHEN, J. EMILIANO DEUSTUA, PIOTR PIECUCH
     UNIVERSITY OF MINNESOTA:
          YINAN SHU
     UNIVERSITY OF SILESIA: MONIKA MUSIAL, STANISLAW KUCHARSKI
     FACULTES UNIVERSITAIRES NOTRE-DAME DE LA PAIX:
          OLIVIER QUINET, BENOIT CHAMPAGNE
     UNIVERSITY OF CALIFORNIA - SANTA BARBARA: BERNARD KIRTMAN
     INSTITUTE FOR MOLECULAR SCIENCE:
          KAZUYA ISHIMURA, MICHIO KATOUDA, AND SHIGERU NAGASE
     UNIVERSITY OF NOTRE DAME: ANNA POMOGAEVA, DAN CHIPMAN
     KYUSHU UNIVERSITY:
          HARUYUKI NAKANO,
          FENG LONG GU, JACEK KORCHOWIEC, MARCIN MAKOWSKI, AND YURIKO AOKI,
          HIROTOSHI MORI AND EISAKU MIYOSHI
     PENNSYLVANIA STATE UNIVERSITY:
          TZVETELIN IORDANOV, CHET SWALINA, JONATHAN SKONE,
          SHARON HAMMES-SCHIFFER
     WASEDA UNIVERSITY:
          MASATO KOBAYASHI, TOMOKO AKAMA, TSUGUKI TOUMA,
          TAKESHI YOSHIKAWA, YASUHIRO IKABATA, JUNJI SEINO,
          YUYA NAKAJIMA, HIROMI NAKAI
     NANJING UNIVERSITY: SHUHUA LI
     UNIVERSITY OF NEBRASKA:
          PEIFENG SU, DEJUN SI, NANDUN THELLAMUREGE, YALI WANG, HUI LI
     UNIVERSITY OF ZURICH: ROBERTO PEVERATI, KIM BALDRIDGE
     N. COPERNICUS UNIVERSITY AND JACKSON STATE UNIVERSITY:
          MARIA BARYSZ
     UNIVERSITY OF COPENHAGEN: Jimmy Kromann, CASPER STEINMANN
     TOKYO INSTITUTE OF TECHNOLOGY: HIROYA NAKATA
     NAGOYA UNIVERSITY: YOSHIO NISHIMOTO, STEPHAN IRLE
     MOSCOW STATE UNIVERSITY: VLADIMIR MIRONOV


 PARALLEL VERSION RUNNING ON        2 PROCESSORS IN        1 NODES.

 EXECUTION OF GAMESS BEGUN Sun Jul  3 22:19:53 2022

            ECHO OF THE FIRST FEW INPUT CARDS -
 INPUT CARD> !Step 1: Geometry optimization and Hessian calculation of H2O at MP2 level.    
 INPUT CARD> $system kdiag=3 mwords=250 memddi=8000 parall=.t. $end                         
 INPUT CARD> $contrl runtyp=optimize ispher=1 $end                                          
 INPUT CARD> $scf    npunch=2 conv=1.0d-06 dirscf=.t.      $end                             
 INPUT CARD> $contrl scftyp=rhf  mult=1 maxit=200 icharg=0 mplevl=2 $end                    
 INPUT CARD> $basis  gbasis=cct $end                                                        
 INPUT CARD> $statpt hssend=.t. nstep=200 $end                                              
 INPUT CARD> $force  method=seminum $end                                                    
 INPUT CARD> $trans  dirtrf=.t. $end                                                        
 INPUT CARD> $data                                                                          
 INPUT CARD> NH3 MP2 Geometry Opt and Hessian                                               
 INPUT CARD> cnv 2                                                                          
 INPUT CARD>                                                                                
 INPUT CARD> O     8.0   0.0  0.0  0.0                                                      
 INPUT CARD> H     1.0   1.0  0.0  0.2                                                      
 INPUT CARD> $end                                                                           
  250000000 WORDS OF MEMORY AVAILABLE

     BASIS OPTIONS
     -------------
     GBASIS=CCT          IGAUSS=       0      POLAR=NONE    
     NDFUNC=       0     NFFUNC=       0     DIFFSP=       F
     NPFUNC=       0      DIFFS=       F     BASNAM=        


     RUN TITLE
     ---------
  NH3 MP2 Geometry Opt and Hessian                                               

 THE POINT GROUP OF THE MOLECULE IS CNV     
 THE ORDER OF THE PRINCIPAL AXIS IS     2

 ATOM      ATOMIC                      COORDINATES (BOHR)
           CHARGE         X                   Y                   Z
 O           8.0     0.0000000000        0.0000000000        0.0000000000
 H           1.0    -1.8897259877        0.0000000000        0.3779451975
 H           1.0     1.8897259877        0.0000000000        0.3779451975

          INTERNUCLEAR DISTANCES (ANGS.)
          ------------------------------

                1 O          2 H          3 H     

   1 O       0.0000000    1.0198039 *  1.0198039 *
   2 H       1.0198039 *  0.0000000    2.0000000 *
   3 H       1.0198039 *  2.0000000 *  0.0000000  

  * ... LESS THAN  3.000


     ATOMIC BASIS SET
     ----------------
 THE CONTRACTED PRIMITIVE FUNCTIONS HAVE BEEN UNNORMALIZED
 THE CONTRACTED BASIS FUNCTIONS ARE NOW NORMALIZED TO UNITY

  SHELL TYPE  PRIMITIVE        EXPONENT          CONTRACTION COEFFICIENT(S)

 O         

      1   S       1         15330.0000000    0.000520198307
      1   S       2          2299.0000000    0.004023344781
      1   S       3           522.4000000    0.020729083329
      1   S       4           147.3000000    0.081082327080
      1   S       5            47.5500000    0.236226352118
      1   S       6            16.7600000    0.443518209420
      1   S       7             6.2070000    0.358670588689
      1   S       8             0.6882000   -0.008349797237

      2   S       9         15330.0000000   -0.000197236012
      2   S      10          2299.0000000   -0.001535010700
      2   S      11           522.4000000   -0.007951183914
      2   S      12           147.3000000   -0.032113452892
      2   S      13            47.5500000   -0.100269643049
      2   S      14            16.7600000   -0.234047111838
      2   S      15             6.2070000   -0.301410927756
      2   S      16             0.6882000    1.034919649508

      3   S      17             1.7520000    1.000000000000

      4   S      18             0.2384000    1.000000000000

      5   P      19            34.4600000    0.041163489568
      5   P      20             7.7490000    0.257762835858
      5   P      21             2.2800000    0.802419274427

      6   P      22             0.7156000    1.000000000000

      7   P      23             0.2140000    1.000000000000

      8   D      24             2.3140000    1.000000000000

      9   D      25             0.6450000    1.000000000000

     10   F      26             1.4280000    1.000000000000

 H         

     17   S      27            33.8700000    0.025494863235
     17   S      28             5.0950000    0.190362765893
     17   S      29             1.1590000    0.852162022245

     18   S      30             0.3258000    1.000000000000

     19   S      31             0.1027000    1.000000000000

     20   P      32             1.4070000    1.000000000000

     21   P      33             0.3880000    1.000000000000

     22   D      34             1.0570000    1.000000000000

 TOTAL NUMBER OF BASIS SET SHELLS             =   22
 NUMBER OF CARTESIAN GAUSSIAN BASIS FUNCTIONS =   65
 NOTE: THIS RUN WILL RESTRICT THE MO VARIATION SPACE TO SPHERICAL HARMONICS.
 THE NUMBER OF ORBITALS KEPT IN THE VARIATIONAL SPACE WILL BE PRINTED LATER.
 NUMBER OF ELECTRONS                          =   10
 CHARGE OF MOLECULE                           =    0
 SPIN MULTIPLICITY                            =    1
 NUMBER OF OCCUPIED ORBITALS (ALPHA)          =    5
 NUMBER OF OCCUPIED ORBITALS (BETA )          =    5
 TOTAL NUMBER OF ATOMS                        =    3
 THE NUCLEAR REPULSION ENERGY IS        8.5670043785

     $CONTRL OPTIONS
     ---------------
 SCFTYP=RHF          RUNTYP=OPTIMIZE     EXETYP=RUN     
 MPLEVL=       2     CITYP =NONE         CCTYP =NONE         VBTYP =NONE    
 DFTTYP=NONE         TDDFT =NONE    
 MULT  =       1     ICHARG=       0     NZVAR =       0     COORD =UNIQUE  
 PP    =NONE         RELWFN=NONE         LOCAL =NONE         NUMGRD=       F
 ISPHER=       1     NOSYM =       0     MAXIT =     200     UNITS =ANGS    
 PLTORB=       F     MOLPLT=       F     AIMPAC=       F     FRIEND=        
 NPRINT=       7     IREST =       0     GEOM  =INPUT   
 NORMF =       0     NORMP =       0     ITOL  =      20     ICUT  =       9
 INTTYP=BEST         GRDTYP=BEST         QMTTOL= 1.0E-06

     $SYSTEM OPTIONS
     ---------------
  REPLICATED MEMORY=   250000000 WORDS (ON EVERY NODE).
 DISTRIBUTED MEMDDI=        8000 MILLION WORDS IN AGGREGATE,
 MEMDDI DISTRIBUTED OVER   2 PROCESSORS IS  4000000000 WORDS/PROCESSOR.
 TOTAL MEMORY REQUESTED ON EACH PROCESSOR=  4250000000 WORDS.
 TIMLIM=      525600.00 MINUTES, OR     365.0 DAYS.
 PARALL= T  BALTYP=  DLB     KDIAG=    3  COREFL= F
 MXSEQ2=     300 MXSEQ3=     150  mem10=         0

          ----------------
          PROPERTIES INPUT
          ----------------

     MOMENTS            FIELD           POTENTIAL          DENSITY
 IEMOM =       1   IEFLD =       0   IEPOT =       0   IEDEN =       0
 WHERE =COMASS     WHERE =NUCLEI     WHERE =NUCLEI     WHERE =NUCLEI  
 OUTPUT=BOTH       OUTPUT=BOTH       OUTPUT=BOTH       OUTPUT=BOTH    
 IEMINT=       0   IEFINT=       0                     IEDINT=       0
                                                       MORB  =       0
          EXTRAPOLATION IN EFFECT
          SOSCF IN EFFECT
 ORBITAL PRINTING OPTION: NPREO=     1    65     2     1

     -------------------------------
     INTEGRAL TRANSFORMATION OPTIONS
     -------------------------------
     NWORD  =            0
     CUTOFF = 1.0E-09     MPTRAN =       0
     DIRTRF =       T     AOINTS =DUP     

          ----------------------
          INTEGRAL INPUT OPTIONS
          ----------------------
 NOPK  =       1 NORDER=       0 SCHWRZ=       T

          -----------------------
          MP2 CONTROL INFORMATION
          -----------------------
          NACORE =        1  NBCORE =        1
          LMOMP2 =        F  AOINTS = DUP     
          METHOD =        2  NWORD  =               0
          MP2PRP =        F  OSPT   = NONE    
          CUTOFF = 1.00E-09  CPHFBS = BASISAO 
          CODE   = DDI     

          NUMBER OF CORE -A-  ORBITALS =     1
          NUMBER OF CORE -B-  ORBITALS =     1
          NUMBER OF OCC. -A-  ORBITALS =     5
          NUMBER OF OCC. -B-  ORBITALS =     5
          NUMBER OF MOLECULAR ORBITALS =    65
          NUMBER OF   BASIS  FUNCTIONS =    65


     ------------------------------------------
     THE POINT GROUP IS CNV, NAXIS= 2, ORDER= 4
     ------------------------------------------

 -- VARIATIONAL SPACE WILL BE RESTRICTED TO PURE SPHERICAL HARMONICS ONLY --
 AFTER EXCLUDING CONTAMINANT COMBINATIONS FROM THE CARTESIAN GAUSSIAN BASIS
 SET, THE NUMBER OF SPHERICAL HARMONICS KEPT IN THE VARIATION SPACE IS   58

     DIMENSIONS OF THE SYMMETRY SUBSPACES ARE
 A1  =   23     A2  =    7     B1  =   17     B2  =   11

 ..... DONE SETTING UP THE RUN .....
 CPU     0: STEP CPU TIME=     0.00 TOTAL CPU TIME=          0.0 (      0.0 MIN)
 TOTAL WALL CLOCK TIME=          0.0 SECONDS, CPU UTILIZATION IS     0.00%


          -----------------------------
          STATIONARY POINT LOCATION RUN
          -----------------------------

 OBTAINING INITIAL HESSIAN, HESS=GUESS   
 CARTESIAN COORDINATE OPTIMIZATION USING BADGER'S RULE FORCE CONSTANT GUESS

          PARAMETERS CONTROLLING GEOMETRY SEARCH ARE
          METHOD =QA                  UPHESS =BFGS    
          NNEG   =         0          NFRZ   =         0
          NSTEP  =       200          IFOLOW =         1
          HESS   =GUESS               RESTAR =         F
          IHREP  =         0          HSSEND =         T
          NPRT   =         0          NPUN   =         0
          OPTTOL = 1.000E-04          RMIN   = 1.500E-03
          RMAX   = 1.000E-01          RLIM   = 7.000E-02
          DXMAX  = 3.000E-01          PURIFY =         F
          MOVIE  =         F          TRUPD  =         T
          TRMAX  = 5.000E-01          TRMIN  = 5.000E-02
          ITBMAT =         5          STPT   =         F
          STSTEP = 1.000E-02          PROJCT=          T

 BEGINNING GEOMETRY SEARCH POINT NSERCH=   0 ...

 COORDINATES OF SYMMETRY UNIQUE ATOMS (ANGS)
   ATOM   CHARGE       X              Y              Z
 ------------------------------------------------------------
 O           8.0   0.0000000000   0.0000000000   0.0000000000
 H           1.0   1.0000000000   0.0000000000   0.2000000000
 COORDINATES OF ALL ATOMS ARE (ANGS)
   ATOM   CHARGE       X              Y              Z
 ------------------------------------------------------------
 O           8.0   0.0000000000   0.0000000000   0.0000000000
 H           1.0  -1.0000000000   0.0000000000   0.2000000000
 H           1.0   1.0000000000   0.0000000000   0.2000000000

          ********************
          1 ELECTRON INTEGRALS
          ********************
 ...... END OF ONE-ELECTRON INTEGRALS ......
 CPU     0: STEP CPU TIME=     0.00 TOTAL CPU TIME=          0.0 (      0.0 MIN)
 TOTAL WALL CLOCK TIME=          0.0 SECONDS, CPU UTILIZATION IS     0.00%

          -------------
          GUESS OPTIONS
          -------------
          GUESS =HUCKEL            NORB  =       0          NORDER=       0
          MIX   =       F          PRTMO =       F          PUNMO =       F
          TOLZ  = 1.0E-08          TOLE  = 1.0E-05
          SYMDEN=       F          PURIFY=       F

 INITIAL GUESS ORBITALS GENERATED BY HUCKEL   ROUTINE.
 HUCKEL GUESS REQUIRES     33070 WORDS.

 STATISTICS FOR GENERATION OF SYMMETRY ORBITAL -Q- MATRIX
 NUMBER OF CARTESIAN ATOMIC ORBITALS=         65
 NUMBER OF SPHERICAL CONTAMINANTS DROPPED=     7
 NUMBER OF LINEARLY DEPENDENT MOS DROPPED=     0
 TOTAL NUMBER OF MOS IN VARIATION SPACE=      58

 SYMMETRIES FOR INITIAL GUESS ORBITALS FOLLOW.   BOTH SET(S).
     5 ORBITALS ARE OCCUPIED (    1 CORE ORBITALS).
     2=A1       3=B1       4=A1       5=B2       6=B1       7=A1       8=A1  
     9=A1      10=A1      11=A1      12=A1      13=A1      14=A1      15=A1  
 ...... END OF INITIAL ORBITAL SELECTION ......
 CPU     0: STEP CPU TIME=     0.01 TOTAL CPU TIME=          0.0 (      0.0 MIN)
 TOTAL WALL CLOCK TIME=          0.0 SECONDS, CPU UTILIZATION IS    50.00%

                    ----------------------
                    AO INTEGRAL TECHNOLOGY
                    ----------------------
     S,P,L SHELL ROTATED AXIS INTEGRALS, REPROGRAMMED BY
        KAZUYA ISHIMURA (IMS) AND JOSE SIERRA (SYNSTAR).
     S,P,D,L SHELL ROTATED AXIS INTEGRALS PROGRAMMED BY
        KAZUYA ISHIMURA (INSTITUTE FOR MOLECULAR SCIENCE).
     S,P,D,F,G SHELL TO TOTAL QUARTET ANGULAR MOMENTUM SUM 5,
        ERIC PROGRAM BY GRAHAM FLETCHER (ELORET AND NASA ADVANCED
        SUPERCOMPUTING DIVISION, AMES RESEARCH CENTER).
     S,P,D,F,G,L SHELL GENERAL RYS QUADRATURE PROGRAMMED BY
        MICHEL DUPUIS (PACIFIC NORTHWEST NATIONAL LABORATORY).

          --------------------
          2 ELECTRON INTEGRALS
          --------------------

 DIRECT SCF METHOD SKIPS INTEGRAL STORAGE ON DISK.
 DIRECT TRANSFORMATION SKIPS AO INTEGRAL STORAGE ON DISK.
  ...... END OF TWO-ELECTRON INTEGRALS .....
 CPU     0: STEP CPU TIME=     0.01 TOTAL CPU TIME=          0.0 (      0.0 MIN)
 TOTAL WALL CLOCK TIME=          0.0 SECONDS, CPU UTILIZATION IS    66.67%

          --------------------------
                 RHF SCF CALCULATION
          --------------------------

     NUCLEAR ENERGY =         8.5670043785
     MAXIT =  200     NPUNCH=    2
     EXTRAP=T  DAMP=F  SHIFT=F  RSTRCT=F  DIIS=F  DEM=F  SOSCF=T
     DENSITY MATRIX CONV=  2.00E-06
     SOSCF WILL OPTIMIZE     265 ORBITAL ROTATIONS, SOGTOL=   0.250
     MEMORY REQUIRED FOR RHF ITERS=     86151 WORDS.

 DIRECT SCF CALCULATION, SCHWRZ=T   FDIFF=T,  DIRTHR=  0.00E+00 NITDIR=10
 SCHWARZ INEQUALITY OVERHEAD:      2145 INTEGRALS, T=        0.00

                                                                                   NONZERO     BLOCKS
 ITER EX DEM     TOTAL ENERGY        E CHANGE  DENSITY CHANGE     ORB. GRAD      INTEGRALS    SKIPPED
   1  0  0      -75.7516207926   -75.7516207926   0.190084457   0.000000000         566091          0
          ---------------START SECOND ORDER SCF---------------
   2  1  0      -75.9800400155    -0.2284192229   0.048901043   0.044892658         566091          0
   3  2  0      -75.9961453295    -0.0161053140   0.029953566   0.016594348         566091          0
   4  3  0      -75.9982958284    -0.0021504989   0.005208931   0.006482275         566073          2
   5  4  0      -75.9985104424    -0.0002146140   0.001508453   0.001708782         566075          2
   6  5  0      -75.9985318846    -0.0000214422   0.001171188   0.000566770         566062          5
   7  6  0      -75.9985356977    -0.0000038131   0.000304519   0.000163783         566057          6
   8  7  0      -75.9985359493    -0.0000002516   0.000105139   0.000059085         565705         18
   9  8  0      -75.9985359889    -0.0000000396   0.000011084   0.000009990         565564         30
  10  9  0      -75.9985359898    -0.0000000010   0.000003091   0.000001287         564522         65
  11 10  0      -75.9985359899    -0.0000000000   0.000000368   0.000000255         558798        254

          -----------------
          DENSITY CONVERGED
          -----------------
     TIME TO FORM FOCK OPERATORS=       0.4 SECONDS (       0.0 SEC/ITER)
     FOCK TIME ON FIRST ITERATION=       0.0, LAST ITERATION=       0.0
     TIME TO SOLVE SCF EQUATIONS=       0.0 SECONDS (       0.0 SEC/ITER)

 FINAL RHF ENERGY IS      -75.9985359899 AFTER  11 ITERATIONS

          ------------
          EIGENVECTORS
          ------------

                      1          2          3          4          5
                  -20.5247    -1.2806    -0.7263    -0.4796    -0.4738
                     A1         A1         B1         A1         B2  
    1  O  1  S    0.975734  -0.008784  -0.000000   0.000491   0.000000
    2  O  1  S   -0.000751   0.511123  -0.000000  -0.067836   0.000000
    3  O  1  S    0.043637   0.132692  -0.000000  -0.021969   0.000000
    4  O  1  S    0.001082   0.319939  -0.000000  -0.100049   0.000000
    5  O  1  X    0.000000   0.000000   0.266694   0.000000   0.000000
    6  O  1  Y    0.000000   0.000000  -0.000000   0.000000   0.352913
    7  O  1  Z    0.000983   0.012225  -0.000000   0.344195   0.000000
    8  O  1  X    0.000000   0.000000   0.334775   0.000000   0.000000
    9  O  1  Y    0.000000   0.000000  -0.000000   0.000000   0.437535
   10  O  1  Z   -0.000715   0.020196  -0.000000   0.427175   0.000000
   11  O  1  X    0.000000   0.000000   0.135968   0.000000   0.000000
   12  O  1  Y    0.000000   0.000000  -0.000000   0.000000   0.395286
   13  O  1  Z    0.000031   0.004187  -0.000000   0.383776   0.000000
   14  O  1 XX    0.000098   0.005210  -0.000000   0.001179   0.000000
   15  O  1 YY   -0.000044  -0.002844  -0.000000  -0.002539   0.000000
   16  O  1 ZZ   -0.000054  -0.002365  -0.000000   0.001360   0.000000
   17  O  1 XY    0.000000   0.000000  -0.000000   0.000000   0.000000
   18  O  1 XZ    0.000000   0.000000   0.005608   0.000000   0.000000
   19  O  1 YZ    0.000000   0.000000  -0.000000   0.000000   0.002236
   20  O  1 XX   -0.001031   0.016790  -0.000000   0.002660   0.000000
   21  O  1 YY    0.000554  -0.008807  -0.000000  -0.008803   0.000000
   22  O  1 ZZ    0.000477  -0.007983  -0.000000   0.006143   0.000000
   23  O  1 XY    0.000000   0.000000  -0.000000   0.000000   0.000000
   24  O  1 XZ    0.000000   0.000000   0.011874   0.000000   0.000000
   25  O  1 YZ    0.000000   0.000000  -0.000000   0.000000   0.008430
   26  O  1 XXX   0.000000   0.000000   0.006557   0.000000   0.000000
   27  O  1 YYY   0.000000   0.000000  -0.000000   0.000000  -0.003677
   28  O  1 ZZZ   0.000057  -0.000995  -0.000000  -0.003107   0.000000
   29  O  1 XXY   0.000000   0.000000  -0.000000   0.000000   0.006051
   30  O  1 XXZ  -0.000105   0.001820  -0.000000   0.006085   0.000000
   31  O  1 YYX   0.000000   0.000000  -0.004872   0.000000   0.000000
   32  O  1 YYZ   0.000028  -0.000486  -0.000000  -0.001916   0.000000
   33  O  1 ZZX   0.000000   0.000000  -0.003926   0.000000   0.000000
   34  O  1 ZZY   0.000000   0.000000  -0.000000   0.000000  -0.001118
   35  O  1 XYZ   0.000000   0.000000  -0.000000   0.000000   0.000000
   36  H  2  S    0.000419   0.076365  -0.141604   0.038503   0.000000
   37  H  2  S    0.001186   0.065721  -0.214077   0.057125   0.000000
   38  H  2  S   -0.000285   0.009226  -0.056020   0.020516   0.000000
   39  H  2  X    0.000335   0.010979  -0.012145   0.004177   0.000000
   40  H  2  Y    0.000000   0.000000  -0.000000   0.000000   0.009702
   41  H  2  Z   -0.000062  -0.001874   0.003547   0.008552   0.000000
   42  H  2  X    0.000665   0.010512  -0.027149   0.002904   0.000000
   43  H  2  Y    0.000000   0.000000  -0.000000   0.000000   0.028742
   44  H  2  Z   -0.000145   0.000310   0.007342   0.026507   0.000000
   45  H  2 XX    0.000035   0.002318  -0.003242   0.001776   0.000000
   46  H  2 YY   -0.000018  -0.001108   0.001866   0.000028   0.000000
   47  H  2 ZZ   -0.000018  -0.001210   0.001376  -0.001804   0.000000
   48  H  2 XY    0.000000   0.000000  -0.000000   0.000000   0.005047
   49  H  2 XZ    0.000006  -0.000373   0.001712   0.004477   0.000000
   50  H  2 YZ    0.000000   0.000000  -0.000000   0.000000  -0.001161
   51  H  3  S    0.000419   0.076365   0.141604   0.038503   0.000000
   52  H  3  S    0.001186   0.065721   0.214077   0.057125   0.000000
   53  H  3  S   -0.000285   0.009226   0.056020   0.020516   0.000000
   54  H  3  X   -0.000335  -0.010979  -0.012145  -0.004177   0.000000
   55  H  3  Y    0.000000   0.000000  -0.000000   0.000000   0.009702
   56  H  3  Z   -0.000062  -0.001874  -0.003547   0.008552   0.000000
   57  H  3  X   -0.000665  -0.010512  -0.027149  -0.002904   0.000000
   58  H  3  Y    0.000000   0.000000  -0.000000   0.000000   0.028742
   59  H  3  Z   -0.000145   0.000310  -0.007342   0.026507   0.000000
   60  H  3 XX    0.000035   0.002318   0.003242   0.001776   0.000000
   61  H  3 YY   -0.000018  -0.001108  -0.001866   0.000028   0.000000
   62  H  3 ZZ   -0.000018  -0.001210  -0.001376  -0.001804   0.000000
   63  H  3 XY    0.000000   0.000000  -0.000000   0.000000  -0.005047
   64  H  3 XZ   -0.000006   0.000373   0.001712  -0.004477   0.000000
   65  H  3 YZ    0.000000   0.000000  -0.000000   0.000000  -0.001161

                      6          7          8          9         10
                    0.1256     0.1897     0.4220     0.6651     0.7381
                     A1         B1         A1         B1         B1  
    1  O  1  S   -0.035801   0.000000  -0.008114  -0.000000   0.000000
    2  O  1  S    0.137011   0.000000  -0.130759  -0.000000   0.000000
    3  O  1  S    0.045645   0.000000  -0.022235  -0.000000   0.000000
    4  O  1  S    1.418774   0.000000  -0.018615  -0.000000   0.000000
    5  O  1  X    0.000000   0.126205   0.000000   0.196555  -0.206941
    6  O  1  Y    0.000000   0.000000   0.000000  -0.000000   0.000000
    7  O  1  Z    0.047194   0.000000  -0.035097  -0.000000   0.000000
    8  O  1  X    0.000000   0.243246   0.000000   0.228030   0.119548
    9  O  1  Y    0.000000   0.000000   0.000000  -0.000000   0.000000
   10  O  1  Z    0.083743   0.000000  -0.034559  -0.000000   0.000000
   11  O  1  X    0.000000   1.290136   0.000000   0.172991   3.247258
   12  O  1  Y    0.000000   0.000000   0.000000  -0.000000   0.000000
   13  O  1  Z    0.172191   0.000000  -0.099110  -0.000000   0.000000
   14  O  1 XX   -0.008187   0.000000   0.025661  -0.000000   0.000000
   15  O  1 YY    0.004075   0.000000  -0.012815  -0.000000   0.000000
   16  O  1 ZZ    0.004112   0.000000  -0.012847  -0.000000   0.000000
   17  O  1 XY    0.000000   0.000000   0.000000  -0.000000   0.000000
   18  O  1 XZ    0.000000  -0.003181   0.000000  -0.018985  -0.036305
   19  O  1 YZ    0.000000   0.000000   0.000000  -0.000000   0.000000
   20  O  1 XX    0.076621   0.000000  -0.015152  -0.000000   0.000000
   21  O  1 YY   -0.041596   0.000000   0.005754  -0.000000   0.000000
   22  O  1 ZZ   -0.035025   0.000000   0.009398  -0.000000   0.000000
   23  O  1 XY    0.000000   0.000000   0.000000  -0.000000   0.000000
   24  O  1 XZ    0.000000   0.046824   0.000000   0.022432   0.231178
   25  O  1 YZ    0.000000   0.000000   0.000000  -0.000000   0.000000
   26  O  1 XXX   0.000000   0.010100   0.000000   0.007057   0.028327
   27  O  1 YYY   0.000000   0.000000   0.000000  -0.000000   0.000000
   28  O  1 ZZZ  -0.003756   0.000000   0.002522  -0.000000   0.000000
   29  O  1 XXY   0.000000   0.000000   0.000000  -0.000000   0.000000
   30  O  1 XXZ   0.006878   0.000000  -0.004492  -0.000000   0.000000
   31  O  1 YYX   0.000000  -0.007478   0.000000  -0.008490  -0.026878
   32  O  1 YYZ  -0.001838   0.000000   0.001109  -0.000000   0.000000
   33  O  1 ZZX   0.000000  -0.006072   0.000000  -0.000979  -0.011126
   34  O  1 ZZY   0.000000   0.000000   0.000000  -0.000000   0.000000
   35  O  1 XYZ   0.000000   0.000000   0.000000  -0.000000   0.000000
   36  H  2  S   -0.073271  -0.008904   0.129716   0.072946  -0.077180
   37  H  2  S   -0.295033   0.389138   0.984007   0.886439   1.792232
   38  H  2  S   -0.857317   1.553905  -0.756396  -0.845831   1.041075
   39  H  2  X   -0.000457  -0.018653   0.034482   0.020503   0.003588
   40  H  2  Y    0.000000   0.000000   0.000000  -0.000000   0.000000
   41  H  2  Z    0.003494   0.011018  -0.003930  -0.027734  -0.019104
   42  H  2  X   -0.136463   0.239972  -0.192839  -0.296109   1.089405
   43  H  2  Y    0.000000   0.000000   0.000000  -0.000000   0.000000
   44  H  2  Z    0.029395  -0.072928  -0.034567   0.404547   0.210909
   45  H  2 XX   -0.019654   0.019730   0.002980   0.000565   0.090931
   46  H  2 YY    0.010987  -0.009574  -0.002517   0.003589  -0.039552
   47  H  2 ZZ    0.008667  -0.010157  -0.000463  -0.004154  -0.051378
   48  H  2 XY    0.000000   0.000000   0.000000  -0.000000   0.000000
   49  H  2 XZ    0.008567  -0.004023  -0.005587   0.016473  -0.001128
   50  H  2 YZ    0.000000   0.000000   0.000000  -0.000000   0.000000
   51  H  3  S   -0.073271   0.008904   0.129716  -0.072946   0.077180
   52  H  3  S   -0.295033  -0.389138   0.984007  -0.886439  -1.792232
   53  H  3  S   -0.857317  -1.553905  -0.756396   0.845831  -1.041075
   54  H  3  X    0.000457  -0.018653  -0.034482   0.020503   0.003588
   55  H  3  Y    0.000000   0.000000   0.000000  -0.000000   0.000000
   56  H  3  Z    0.003494  -0.011018  -0.003930   0.027734   0.019104
   57  H  3  X    0.136463   0.239972   0.192839  -0.296109   1.089405
   58  H  3  Y    0.000000   0.000000   0.000000  -0.000000   0.000000
   59  H  3  Z    0.029395   0.072928  -0.034567  -0.404547  -0.210909
   60  H  3 XX   -0.019654  -0.019730   0.002980  -0.000565  -0.090931
   61  H  3 YY    0.010987   0.009574  -0.002517  -0.003589   0.039552
   62  H  3 ZZ    0.008667   0.010157  -0.000463   0.004154   0.051378
   63  H  3 XY    0.000000   0.000000   0.000000  -0.000000   0.000000
   64  H  3 XZ   -0.008567  -0.004023   0.005587   0.016473  -0.001128
   65  H  3 YZ    0.000000   0.000000   0.000000  -0.000000   0.000000

                     11         12         13         14         15
                    0.7766     0.7830     0.8009     1.0236     1.0369
                     A2         A1         B2         A1         B1  
    1  O  1  S   -0.000000  -0.004379  -0.000000  -0.192576   0.000000
    2  O  1  S   -0.000000  -0.035569  -0.000000  -0.631659   0.000000
    3  O  1  S   -0.000000  -0.048682  -0.000000  -0.223868   0.000000
    4  O  1  S   -0.000000   1.908402  -0.000000   4.805922   0.000000
    5  O  1  X   -0.000000   0.000000  -0.000000   0.000000  -0.082940
    6  O  1  Y   -0.000000   0.000000  -0.260816   0.000000   0.000000
    7  O  1  Z   -0.000000  -0.258278  -0.000000   0.032023   0.000000
    8  O  1  X   -0.000000   0.000000  -0.000000   0.000000  -0.082398
    9  O  1  Y   -0.000000   0.000000  -0.784221   0.000000   0.000000
   10  O  1  Z   -0.000000  -0.675342  -0.000000   0.383283   0.000000
   11  O  1  X   -0.000000   0.000000  -0.000000   0.000000   4.257239
   12  O  1  Y   -0.000000   0.000000   1.096929   0.000000   0.000000
   13  O  1  Z   -0.000000   1.210737  -0.000000  -0.533986   0.000000
   14  O  1 XX   -0.000000  -0.018975  -0.000000  -0.044146   0.000000
   15  O  1 YY   -0.000000   0.012530  -0.000000   0.019018   0.000000
   16  O  1 ZZ   -0.000000   0.006445  -0.000000   0.025128   0.000000
   17  O  1 XY   -0.034583   0.000000  -0.000000   0.000000   0.000000
   18  O  1 XZ   -0.000000   0.000000  -0.000000   0.000000  -0.000004
   19  O  1 YZ   -0.000000   0.000000  -0.003313   0.000000   0.000000
   20  O  1 XX   -0.000000   0.270470  -0.000000   0.630670   0.000000
   21  O  1 YY   -0.000000  -0.149456  -0.000000  -0.341174   0.000000
   22  O  1 ZZ   -0.000000  -0.121014  -0.000000  -0.289496   0.000000
   23  O  1 XY    0.083650   0.000000  -0.000000   0.000000   0.000000
   24  O  1 XZ   -0.000000   0.000000  -0.000000   0.000000   0.077967
   25  O  1 YZ   -0.000000   0.000000   0.009708   0.000000   0.000000
   26  O  1 XXX  -0.000000   0.000000  -0.000000   0.000000   0.032076
   27  O  1 YYY  -0.000000   0.000000  -0.004497   0.000000   0.000000
   28  O  1 ZZZ  -0.000000  -0.010641  -0.000000  -0.017050   0.000000
   29  O  1 XXY  -0.000000   0.000000   0.007673   0.000000   0.000000
   30  O  1 XXZ  -0.000000   0.019456  -0.000000   0.030696   0.000000
   31  O  1 YYX  -0.000000   0.000000  -0.000000   0.000000  -0.021146
   32  O  1 YYZ  -0.000000  -0.005180  -0.000000  -0.007821   0.000000
   33  O  1 ZZX  -0.000000   0.000000  -0.000000   0.000000  -0.021889
   34  O  1 ZZY  -0.000000   0.000000  -0.001640   0.000000   0.000000
   35  O  1 XYZ   0.008152   0.000000  -0.000000   0.000000   0.000000
   36  H  2  S   -0.000000   0.003252  -0.000000   0.013996  -0.005536
   37  H  2  S   -0.000000  -0.751487  -0.000000  -1.567660   2.631518
   38  H  2  S   -0.000000  -0.270455  -0.000000  -0.635043   0.580511
   39  H  2  X   -0.000000  -0.026671  -0.000000  -0.093666   0.019308
   40  H  2  Y   -0.056000   0.000000  -0.015242   0.000000   0.000000
   41  H  2  Z   -0.000000  -0.005687  -0.000000  -0.014015   0.047210
   42  H  2  X   -0.000000  -0.532270  -0.000000  -1.071951   0.390152
   43  H  2  Y    0.800031   0.000000   0.077086   0.000000   0.000000
   44  H  2  Z   -0.000000   0.202622  -0.000000   0.810172  -0.744643
   45  H  2 XX   -0.000000  -0.054463  -0.000000  -0.133514   0.040258
   46  H  2 YY   -0.000000   0.027166  -0.000000   0.075144  -0.021778
   47  H  2 ZZ   -0.000000   0.027297  -0.000000   0.058370  -0.018480
   48  H  2 XY    0.031973   0.000000  -0.023165   0.000000   0.000000
   49  H  2 XZ   -0.000000   0.004473  -0.000000   0.074248  -0.016979
   50  H  2 YZ   -0.009328   0.000000   0.004672   0.000000   0.000000
   51  H  3  S   -0.000000   0.003252  -0.000000   0.013996   0.005536
   52  H  3  S   -0.000000  -0.751487  -0.000000  -1.567660  -2.631518
   53  H  3  S   -0.000000  -0.270455  -0.000000  -0.635043  -0.580511
   54  H  3  X   -0.000000   0.026671  -0.000000   0.093666   0.019308
   55  H  3  Y    0.056000   0.000000  -0.015242   0.000000   0.000000
   56  H  3  Z   -0.000000  -0.005687  -0.000000  -0.014015  -0.047210
   57  H  3  X   -0.000000   0.532270  -0.000000   1.071951   0.390152
   58  H  3  Y   -0.800031   0.000000   0.077086   0.000000   0.000000
   59  H  3  Z   -0.000000   0.202622  -0.000000   0.810172   0.744643
   60  H  3 XX   -0.000000  -0.054463  -0.000000  -0.133514  -0.040258
   61  H  3 YY   -0.000000   0.027166  -0.000000   0.075144   0.021778
   62  H  3 ZZ   -0.000000   0.027297  -0.000000   0.058370   0.018480
   63  H  3 XY    0.031973   0.000000   0.023165   0.000000   0.000000
   64  H  3 XZ   -0.000000  -0.004473  -0.000000  -0.074248  -0.016979
   65  H  3 YZ    0.009328   0.000000   0.004672   0.000000   0.000000

                     16         17         18         19         20
                    1.1145     1.1716     1.4304     1.6384     1.7838
                     B2         A1         A1         B1         B2  
    1  O  1  S    0.000000  -0.225997   0.256535   0.000000  -0.000000
    2  O  1  S    0.000000  -0.667125   0.773320   0.000000  -0.000000
    3  O  1  S    0.000000  -0.217342   0.190761   0.000000  -0.000000
    4  O  1  S    0.000000   4.563625   1.805602   0.000000  -0.000000
    5  O  1  X    0.000000   0.000000   0.000000   0.254149  -0.000000
    6  O  1  Y    0.006286   0.000000   0.000000   0.000000  -0.005748
    7  O  1  Z    0.000000   0.017890   0.062876   0.000000  -0.000000
    8  O  1  X    0.000000   0.000000   0.000000   1.409996  -0.000000
    9  O  1  Y   -0.063349   0.000000   0.000000   0.000000  -0.000569
   10  O  1  Z    0.000000   0.179155   0.199779   0.000000  -0.000000
   11  O  1  X    0.000000   0.000000   0.000000   3.193030  -0.000000
   12  O  1  Y    1.230660   0.000000   0.000000   0.000000   0.257922
   13  O  1  Z    0.000000   1.309414   0.247565   0.000000  -0.000000
   14  O  1 XX    0.000000  -0.025228  -0.017659   0.000000  -0.000000
   15  O  1 YY    0.000000   0.016294   0.008532   0.000000  -0.000000
   16  O  1 ZZ    0.000000   0.008934   0.009127   0.000000  -0.000000
   17  O  1 XY    0.000000   0.000000   0.000000   0.000000  -0.000000
   18  O  1 XZ    0.000000   0.000000   0.000000  -0.001939  -0.000000
   19  O  1 YZ   -0.005474   0.000000   0.000000   0.000000  -0.017362
   20  O  1 XX    0.000000   0.483336  -0.184966   0.000000  -0.000000
   21  O  1 YY    0.000000  -0.196576   0.135839   0.000000  -0.000000
   22  O  1 ZZ    0.000000  -0.286760   0.049127   0.000000  -0.000000
   23  O  1 XY    0.000000   0.000000   0.000000   0.000000  -0.000000
   24  O  1 XZ    0.000000   0.000000   0.000000  -0.049185  -0.000000
   25  O  1 YZ   -0.053756   0.000000   0.000000   0.000000   0.989458
   26  O  1 XXX   0.000000   0.000000   0.000000   0.006539  -0.000000
   27  O  1 YYY  -0.009064   0.000000   0.000000   0.000000  -0.003927
   28  O  1 ZZZ   0.000000  -0.026919   0.016530   0.000000  -0.000000
   29  O  1 XXY   0.016340   0.000000   0.000000   0.000000  -0.001026
   30  O  1 XXZ   0.000000   0.048228  -0.030575   0.000000  -0.000000
   31  O  1 YYX   0.000000   0.000000   0.000000  -0.005166  -0.000000
   32  O  1 YYZ   0.000000  -0.012113   0.008397   0.000000  -0.000000
   33  O  1 ZZX   0.000000   0.000000   0.000000  -0.003607  -0.000000
   34  O  1 ZZY  -0.004180   0.000000   0.000000   0.000000   0.006295
   35  O  1 XYZ   0.000000   0.000000   0.000000   0.000000  -0.000000
   36  H  2  S    0.000000  -0.000579  -0.223938   0.164977  -0.000000
   37  H  2  S    0.000000  -1.731011  -0.574628   2.614723  -0.000000
   38  H  2  S    0.000000  -0.483589  -0.387736   0.905380  -0.000000
   39  H  2  X    0.000000  -0.060107   0.140436  -0.100306  -0.000000
   40  H  2  Y    0.075006   0.000000   0.000000   0.000000   0.010769
   41  H  2  Z    0.000000   0.082197  -0.006423   0.050054  -0.000000
   42  H  2  X    0.000000  -1.142222  -1.308535   1.880054  -0.000000
   43  H  2  Y   -1.065677   0.000000   0.000000   0.000000  -0.246008
   44  H  2  Z    0.000000  -0.679806   0.086437  -0.729614  -0.000000
   45  H  2 XX    0.000000  -0.123941   0.029694   0.091455  -0.000000
   46  H  2 YY    0.000000   0.072920  -0.009370  -0.041653  -0.000000
   47  H  2 ZZ    0.000000   0.051021  -0.020324  -0.049802  -0.000000
   48  H  2 XY   -0.004573   0.000000   0.000000   0.000000   0.009986
   49  H  2 XZ    0.000000   0.052589  -0.002377  -0.021362  -0.000000
   50  H  2 YZ   -0.003677   0.000000   0.000000   0.000000   0.070397
   51  H  3  S    0.000000  -0.000579  -0.223938  -0.164977  -0.000000
   52  H  3  S    0.000000  -1.731011  -0.574628  -2.614723  -0.000000
   53  H  3  S    0.000000  -0.483589  -0.387736  -0.905380  -0.000000
   54  H  3  X    0.000000   0.060107  -0.140436  -0.100306  -0.000000
   55  H  3  Y    0.075006   0.000000   0.000000   0.000000   0.010769
   56  H  3  Z    0.000000   0.082197  -0.006423  -0.050054  -0.000000
   57  H  3  X    0.000000   1.142222   1.308535   1.880054  -0.000000
   58  H  3  Y   -1.065677   0.000000   0.000000   0.000000  -0.246008
   59  H  3  Z    0.000000  -0.679806   0.086437   0.729614  -0.000000
   60  H  3 XX    0.000000  -0.123941   0.029694  -0.091455  -0.000000
   61  H  3 YY    0.000000   0.072920  -0.009370   0.041653  -0.000000
   62  H  3 ZZ    0.000000   0.051021  -0.020324   0.049802  -0.000000
   63  H  3 XY    0.004573   0.000000   0.000000   0.000000  -0.009986
   64  H  3 XZ    0.000000  -0.052589   0.002377  -0.021362  -0.000000
   65  H  3 YZ   -0.003677   0.000000   0.000000   0.000000   0.070397

                     21         22         23         24         25
                    1.7885     2.1579     2.2013     2.2049     2.8905
                     A1         A2         A1         B1         B1  
    1  O  1  S   -0.030510   0.000000   0.308318  -0.000000   0.000000
    2  O  1  S   -0.069699   0.000000   0.784480  -0.000000   0.000000
    3  O  1  S   -0.011274   0.000000   0.052127  -0.000000   0.000000
    4  O  1  S    0.278205   0.000000   5.913609  -0.000000   0.000000
    5  O  1  X    0.000000   0.000000   0.000000   0.074034  -0.111322
    6  O  1  Y    0.000000   0.000000   0.000000  -0.000000   0.000000
    7  O  1  Z   -0.001689   0.000000   0.054844  -0.000000   0.000000
    8  O  1  X    0.000000   0.000000   0.000000   0.815230   1.222678
    9  O  1  Y    0.000000   0.000000   0.000000  -0.000000   0.000000
   10  O  1  Z    0.003400   0.000000   0.332144  -0.000000   0.000000
   11  O  1  X    0.000000   0.000000   0.000000   2.609063   3.844634
   12  O  1  Y    0.000000   0.000000   0.000000  -0.000000   0.000000
   13  O  1  Z    0.300125   0.000000   0.738346  -0.000000   0.000000
   14  O  1 XX   -0.000181   0.000000  -0.041155  -0.000000   0.000000
   15  O  1 YY    0.015072   0.000000   0.020907  -0.000000   0.000000
   16  O  1 ZZ   -0.014891   0.000000   0.020248  -0.000000   0.000000
   17  O  1 XY    0.000000  -0.006370   0.000000  -0.000000   0.000000
   18  O  1 XZ    0.000000   0.000000   0.000000  -0.005790  -0.009299
   19  O  1 YZ    0.000000   0.000000   0.000000  -0.000000   0.000000
   20  O  1 XX   -0.093118   0.000000   1.763833  -0.000000   0.000000
   21  O  1 YY   -0.805884   0.000000  -0.981434  -0.000000   0.000000
   22  O  1 ZZ    0.899002   0.000000  -0.782399  -0.000000   0.000000
   23  O  1 XY    0.000000   1.245571   0.000000  -0.000000   0.000000
   24  O  1 XZ    0.000000   0.000000   0.000000   1.384912   0.181828
   25  O  1 YZ    0.000000   0.000000   0.000000  -0.000000   0.000000
   26  O  1 XXX   0.000000   0.000000   0.000000   0.046101   0.184416
   27  O  1 YYY   0.000000   0.000000   0.000000  -0.000000   0.000000
   28  O  1 ZZZ   0.007331   0.000000  -0.039815  -0.000000   0.000000
   29  O  1 XXY   0.000000   0.000000   0.000000  -0.000000   0.000000
   30  O  1 XXZ  -0.005172   0.000000   0.072275  -0.000000   0.000000
   31  O  1 YYX   0.000000   0.000000   0.000000  -0.040542  -0.158995
   32  O  1 YYZ  -0.004663   0.000000  -0.018857  -0.000000   0.000000
   33  O  1 ZZX   0.000000   0.000000   0.000000  -0.021309  -0.088425
   34  O  1 ZZY   0.000000   0.000000   0.000000  -0.000000   0.000000
   35  O  1 XYZ   0.000000   0.003298   0.000000  -0.000000   0.000000
   36  H  2  S   -0.057624   0.000000   0.503679  -0.081036  -1.147062
   37  H  2  S   -0.013968   0.000000  -4.015998   2.427661   4.419082
   38  H  2  S   -0.067696   0.000000  -0.038319   0.365170   0.087886
   39  H  2  X    0.010705   0.000000  -0.129514   0.000102   0.124237
   40  H  2  Y    0.000000  -0.108369   0.000000  -0.000000   0.000000
   41  H  2  Z    0.011539   0.000000  -0.003050  -0.114480  -0.070419
   42  H  2  X   -0.112888   0.000000  -2.075852   1.149578   1.377239
   43  H  2  Y    0.000000   0.618358   0.000000  -0.000000   0.000000
   44  H  2  Z   -0.253651   0.000000   0.340995   0.197933  -0.510781
   45  H  2 XX    0.002579   0.000000  -0.131339   0.119708   0.143388
   46  H  2 YY   -0.061931   0.000000   0.069489  -0.084686  -0.022618
   47  H  2 ZZ    0.059352   0.000000   0.061850  -0.035022  -0.120770
   48  H  2 XY    0.000000   0.001595   0.000000  -0.000000   0.000000
   49  H  2 XZ    0.009564   0.000000   0.090517  -0.026573   0.066996
   50  H  2 YZ    0.000000   0.029944   0.000000  -0.000000   0.000000
   51  H  3  S   -0.057624   0.000000   0.503679   0.081036   1.147062
   52  H  3  S   -0.013968   0.000000  -4.015998  -2.427661  -4.419082
   53  H  3  S   -0.067696   0.000000  -0.038319  -0.365170  -0.087886
   54  H  3  X   -0.010705   0.000000   0.129514   0.000102   0.124237
   55  H  3  Y    0.000000   0.108369   0.000000  -0.000000   0.000000
   56  H  3  Z    0.011539   0.000000  -0.003050   0.114480   0.070419
   57  H  3  X    0.112888   0.000000   2.075852   1.149578   1.377239
   58  H  3  Y    0.000000  -0.618358   0.000000  -0.000000   0.000000
   59  H  3  Z   -0.253651   0.000000   0.340995  -0.197933   0.510781
   60  H  3 XX    0.002579   0.000000  -0.131339  -0.119708  -0.143388
   61  H  3 YY   -0.061931   0.000000   0.069489   0.084686   0.022618
   62  H  3 ZZ    0.059352   0.000000   0.061850   0.035022   0.120770
   63  H  3 XY    0.000000   0.001595   0.000000  -0.000000   0.000000
   64  H  3 XZ   -0.009564   0.000000  -0.090517  -0.026573   0.066996
   65  H  3 YZ    0.000000  -0.029944   0.000000  -0.000000   0.000000

                     26         27         28         29         30
                    3.1211     3.3620     3.3630     3.5629     3.6225
                     A1         A2         B1         B2         A1  
    1  O  1  S   -0.047817   0.000000  -0.000000  -0.000000   0.025335
    2  O  1  S   -0.073561   0.000000  -0.000000  -0.000000   0.046501
    3  O  1  S   -0.000079   0.000000  -0.000000  -0.000000   0.010729
    4  O  1  S    1.970736   0.000000  -0.000000  -0.000000   1.013582
    5  O  1  X   -0.000000   0.000000   0.002080  -0.000000   0.000000
    6  O  1  Y   -0.000000   0.000000  -0.000000   0.428084   0.000000
    7  O  1  Z    0.203920   0.000000  -0.000000  -0.000000  -0.140736
    8  O  1  X   -0.000000   0.000000  -0.002131  -0.000000   0.000000
    9  O  1  Y   -0.000000   0.000000  -0.000000  -0.224880   0.000000
   10  O  1  Z    0.007839   0.000000  -0.000000  -0.000000   0.087564
   11  O  1  X   -0.000000   0.000000  -0.146959  -0.000000   0.000000
   12  O  1  Y   -0.000000   0.000000  -0.000000   0.043182   0.000000
   13  O  1  Z    0.097615   0.000000  -0.000000  -0.000000   0.106727
   14  O  1 XX    0.066314   0.000000  -0.000000  -0.000000   0.041431
   15  O  1 YY   -0.028363   0.000000  -0.000000  -0.000000  -0.042583
   16  O  1 ZZ   -0.037951   0.000000  -0.000000  -0.000000   0.001153
   17  O  1 XY   -0.000000  -0.021153  -0.000000  -0.000000   0.000000
   18  O  1 XZ   -0.000000   0.000000   0.022333  -0.000000   0.000000
   19  O  1 YZ   -0.000000   0.000000  -0.000000  -0.024977   0.000000
   20  O  1 XX    0.960687   0.000000  -0.000000  -0.000000   0.267761
   21  O  1 YY   -0.488257   0.000000  -0.000000  -0.000000  -0.413910
   22  O  1 ZZ   -0.472430   0.000000  -0.000000  -0.000000   0.146148
   23  O  1 XY   -0.000000   0.014011  -0.000000  -0.000000   0.000000
   24  O  1 XZ   -0.000000   0.000000  -0.022932  -0.000000   0.000000
   25  O  1 YZ   -0.000000   0.000000  -0.000000  -0.176812   0.000000
   26  O  1 XXX  -0.000000   0.000000   0.004032  -0.000000   0.000000
   27  O  1 YYY  -0.000000   0.000000  -0.000000   0.018762   0.000000
   28  O  1 ZZZ   0.030479   0.000000  -0.000000  -0.000000  -0.055483
   29  O  1 XXY  -0.000000   0.000000  -0.000000  -0.069865   0.000000
   30  O  1 XXZ  -0.051970   0.000000  -0.000000  -0.000000   0.041792
   31  O  1 YYX  -0.000000   0.000000  -0.112120  -0.000000   0.000000
   32  O  1 YYZ   0.011078   0.000000  -0.000000  -0.000000   0.032646
   33  O  1 ZZX  -0.000000   0.000000   0.106711  -0.000000   0.000000
   34  O  1 ZZY  -0.000000   0.000000  -0.000000   0.044692   0.000000
   35  O  1 XYZ  -0.000000  -0.128511  -0.000000  -0.000000   0.000000
   36  H  2  S   -0.812922   0.000000   0.054842  -0.000000  -0.109110
   37  H  2  S   -0.223794   0.000000  -0.157673  -0.000000  -0.394638
   38  H  2  S   -0.375985   0.000000   0.004604  -0.000000  -0.114332
   39  H  2  X    0.179174   0.000000  -0.040216  -0.000000   0.187934
   40  H  2  Y   -0.000000   0.072132  -0.000000  -0.351986   0.000000
   41  H  2  Z   -0.185674   0.000000  -0.054596  -0.000000   0.083546
   42  H  2  X   -0.627068   0.000000  -0.011506  -0.000000  -0.423953
   43  H  2  Y   -0.000000  -0.036103  -0.000000   0.205718   0.000000
   44  H  2  Z    0.317089   0.000000   0.039698  -0.000000  -0.001716
   45  H  2 XX   -0.217799   0.000000  -0.032658  -0.000000  -0.047296
   46  H  2 YY    0.046233   0.000000   0.567542  -0.000000   0.616433
   47  H  2 ZZ    0.171566   0.000000  -0.534883  -0.000000  -0.569137
   48  H  2 XY   -0.000000   0.213056  -0.000000  -0.244781   0.000000
   49  H  2 XZ   -0.077812   0.000000  -0.219994  -0.000000   0.057401
   50  H  2 YZ   -0.000000   0.639185  -0.000000   0.523396   0.000000
   51  H  3  S   -0.812922   0.000000  -0.054842  -0.000000  -0.109110
   52  H  3  S   -0.223794   0.000000   0.157673  -0.000000  -0.394638
   53  H  3  S   -0.375985   0.000000  -0.004604  -0.000000  -0.114332
   54  H  3  X   -0.179174   0.000000  -0.040216  -0.000000  -0.187934
   55  H  3  Y   -0.000000  -0.072132  -0.000000  -0.351986   0.000000
   56  H  3  Z   -0.185674   0.000000   0.054596  -0.000000   0.083546
   57  H  3  X    0.627068   0.000000  -0.011506  -0.000000   0.423953
   58  H  3  Y   -0.000000   0.036103  -0.000000   0.205718   0.000000
   59  H  3  Z    0.317089   0.000000  -0.039698  -0.000000  -0.001716
   60  H  3 XX   -0.217799   0.000000   0.032658  -0.000000  -0.047296
   61  H  3 YY    0.046233   0.000000  -0.567542  -0.000000   0.616433
   62  H  3 ZZ    0.171566   0.000000   0.534883  -0.000000  -0.569137
   63  H  3 XY   -0.000000   0.213056  -0.000000   0.244781   0.000000
   64  H  3 XZ    0.077812   0.000000  -0.219994  -0.000000  -0.057401
   65  H  3 YZ   -0.000000  -0.639185  -0.000000   0.523396   0.000000

                     31         32         33         34         35
                    3.6985     3.7708     3.8499     3.9014     4.0256
                     B2         A1         A2         B1         B1  
    1  O  1  S    0.000000   0.056466   0.000000   0.000000  -0.000000
    2  O  1  S    0.000000   0.101134   0.000000   0.000000  -0.000000
    3  O  1  S    0.000000   0.024317   0.000000   0.000000  -0.000000
    4  O  1  S    0.000000   1.779770   0.000000   0.000000  -0.000000
    5  O  1  X    0.000000   0.000000   0.000000  -0.362413  -0.247600
    6  O  1  Y   -0.473971   0.000000   0.000000   0.000000  -0.000000
    7  O  1  Z    0.000000  -0.582359   0.000000   0.000000  -0.000000
    8  O  1  X    0.000000   0.000000   0.000000   1.176078   1.389449
    9  O  1  Y    0.367184   0.000000   0.000000   0.000000  -0.000000
   10  O  1  Z    0.000000   0.518466   0.000000   0.000000  -0.000000
   11  O  1  X    0.000000   0.000000   0.000000   0.305420   2.910977
   12  O  1  Y   -0.117427   0.000000   0.000000   0.000000  -0.000000
   13  O  1  Z    0.000000   0.043969   0.000000   0.000000  -0.000000
   14  O  1 XX    0.000000   0.078169   0.000000   0.000000  -0.000000
   15  O  1 YY    0.000000  -0.046588   0.000000   0.000000  -0.000000
   16  O  1 ZZ    0.000000  -0.031582   0.000000   0.000000  -0.000000
   17  O  1 XY    0.000000   0.000000   0.014585   0.000000  -0.000000
   18  O  1 XZ    0.000000   0.000000   0.000000   0.000402   0.042894
   19  O  1 YZ   -0.005373   0.000000   0.000000   0.000000  -0.000000
   20  O  1 XX    0.000000   0.386960   0.000000   0.000000  -0.000000
   21  O  1 YY    0.000000  -0.018835   0.000000   0.000000  -0.000000
   22  O  1 ZZ    0.000000  -0.368124   0.000000   0.000000  -0.000000
   23  O  1 XY    0.000000   0.000000  -0.224760   0.000000  -0.000000
   24  O  1 XZ    0.000000   0.000000   0.000000   0.335967   0.243035
   25  O  1 YZ   -0.337875   0.000000   0.000000   0.000000  -0.000000
   26  O  1 XXX   0.000000   0.000000   0.000000   0.022663   0.251757
   27  O  1 YYY  -0.051266   0.000000   0.000000   0.000000  -0.000000
   28  O  1 ZZZ   0.000000  -0.011129   0.000000   0.000000  -0.000000
   29  O  1 XXY   0.035665   0.000000   0.000000   0.000000  -0.000000
   30  O  1 XXZ   0.000000   0.053832   0.000000   0.000000  -0.000000
   31  O  1 YYX   0.000000   0.000000   0.000000  -0.064213  -0.136545
   32  O  1 YYZ   0.000000  -0.038901   0.000000   0.000000  -0.000000
   33  O  1 ZZX   0.000000   0.000000   0.000000   0.033808  -0.201222
   34  O  1 ZZY   0.033115   0.000000   0.000000   0.000000  -0.000000
   35  O  1 XYZ   0.000000   0.000000  -0.073770   0.000000  -0.000000
   36  H  2  S    0.000000  -0.093890   0.000000   0.068960  -0.243198
   37  H  2  S    0.000000  -0.757179   0.000000   0.715055   2.808855
   38  H  2  S    0.000000  -0.185701   0.000000   0.210111   0.561152
   39  H  2  X    0.000000   0.400966   0.000000  -0.450586  -0.324322
   40  H  2  Y    0.373374   0.000000   0.803266   0.000000  -0.000000
   41  H  2  Z    0.000000   0.372174   0.000000  -0.451692   0.705318
   42  H  2  X    0.000000  -0.796191   0.000000   1.000240   1.567249
   43  H  2  Y   -0.179466   0.000000  -0.584278   0.000000  -0.000000
   44  H  2  Z    0.000000  -0.077438   0.000000   0.249708  -0.839762
   45  H  2 XX    0.000000  -0.020083   0.000000   0.560988   0.405248
   46  H  2 YY    0.000000  -0.177786   0.000000  -0.245184  -0.209009
   47  H  2 ZZ    0.000000   0.197869   0.000000  -0.315804  -0.196239
   48  H  2 XY    0.318032   0.000000  -0.382459   0.000000  -0.000000
   49  H  2 XZ    0.000000   0.374164   0.000000   0.214163  -0.223706
   50  H  2 YZ    0.498278   0.000000   0.042015   0.000000  -0.000000
   51  H  3  S    0.000000  -0.093890   0.000000  -0.068960   0.243198
   52  H  3  S    0.000000  -0.757179   0.000000  -0.715055  -2.808855
   53  H  3  S    0.000000  -0.185701   0.000000  -0.210111  -0.561152
   54  H  3  X    0.000000  -0.400966   0.000000  -0.450586  -0.324322
   55  H  3  Y    0.373374   0.000000  -0.803266   0.000000  -0.000000
   56  H  3  Z    0.000000   0.372174   0.000000   0.451692  -0.705318
   57  H  3  X    0.000000   0.796191   0.000000   1.000240   1.567249
   58  H  3  Y   -0.179466   0.000000   0.584278   0.000000  -0.000000
   59  H  3  Z    0.000000  -0.077438   0.000000  -0.249708   0.839762
   60  H  3 XX    0.000000  -0.020083   0.000000  -0.560988  -0.405248
   61  H  3 YY    0.000000  -0.177786   0.000000   0.245184   0.209009
   62  H  3 ZZ    0.000000   0.197869   0.000000   0.315804   0.196239
   63  H  3 XY   -0.318032   0.000000  -0.382459   0.000000  -0.000000
   64  H  3 XZ    0.000000  -0.374164   0.000000   0.214163  -0.223706
   65  H  3 YZ    0.498278   0.000000  -0.042015   0.000000  -0.000000

                     36         37         38         39         40
                    4.1121     4.1142     4.4619     4.4676     4.5806
                     B2         A1         B2         A1         B1  
    1  O  1  S    0.000000  -0.058794  -0.000000  -0.200021  -0.000000
    2  O  1  S    0.000000  -0.146543  -0.000000  -0.393322  -0.000000
    3  O  1  S    0.000000  -0.053047  -0.000000  -0.050076  -0.000000
    4  O  1  S    0.000000   0.392055  -0.000000  -0.138289  -0.000000
    5  O  1  X    0.000000   0.000000  -0.000000  -0.000000   0.764585
    6  O  1  Y   -0.404589   0.000000  -0.967039  -0.000000  -0.000000
    7  O  1  Z    0.000000   0.403107  -0.000000  -0.937691  -0.000000
    8  O  1  X    0.000000   0.000000  -0.000000  -0.000000  -0.587487
    9  O  1  Y    0.198354   0.000000   1.462365  -0.000000  -0.000000
   10  O  1  Z    0.000000  -0.237016  -0.000000   1.290736  -0.000000
   11  O  1  X    0.000000   0.000000  -0.000000  -0.000000  -0.036908
   12  O  1  Y   -0.733395   0.000000  -0.322155  -0.000000  -0.000000
   13  O  1  Z    0.000000   0.784982  -0.000000  -0.341021  -0.000000
   14  O  1 XX    0.000000   0.009129  -0.000000   0.004948  -0.000000
   15  O  1 YY    0.000000  -0.011795  -0.000000   0.007355  -0.000000
   16  O  1 ZZ    0.000000   0.002666  -0.000000  -0.012303  -0.000000
   17  O  1 XY    0.000000   0.000000  -0.000000  -0.000000  -0.000000
   18  O  1 XZ    0.000000   0.000000  -0.000000  -0.000000  -0.103328
   19  O  1 YZ   -0.006398   0.000000  -0.014032  -0.000000  -0.000000
   20  O  1 XX    0.000000  -0.076416  -0.000000   0.039515  -0.000000
   21  O  1 YY    0.000000  -0.077495  -0.000000  -0.135015  -0.000000
   22  O  1 ZZ    0.000000   0.153911  -0.000000   0.095500  -0.000000
   23  O  1 XY    0.000000   0.000000  -0.000000  -0.000000  -0.000000
   24  O  1 XZ    0.000000   0.000000  -0.000000  -0.000000   0.968949
   25  O  1 YZ   -0.141036   0.000000   0.162291  -0.000000  -0.000000
   26  O  1 XXX   0.000000   0.000000  -0.000000  -0.000000   0.218797
   27  O  1 YYY   0.123076   0.000000   0.107124  -0.000000  -0.000000
   28  O  1 ZZZ   0.000000  -0.100756  -0.000000   0.100437  -0.000000
   29  O  1 XXY  -0.216813   0.000000  -0.160352  -0.000000  -0.000000
   30  O  1 XXZ   0.000000   0.184277  -0.000000  -0.208450  -0.000000
   31  O  1 YYX   0.000000   0.000000  -0.000000  -0.000000  -0.084928
   32  O  1 YYZ   0.000000  -0.049099  -0.000000   0.073700  -0.000000
   33  O  1 ZZX   0.000000   0.000000  -0.000000  -0.000000  -0.208619
   34  O  1 ZZY   0.051690   0.000000   0.016630  -0.000000  -0.000000
   35  O  1 XYZ   0.000000   0.000000  -0.000000  -0.000000  -0.000000
   36  H  2  S    0.000000   0.044897  -0.000000  -0.124746   0.169992
   37  H  2  S    0.000000  -0.221340  -0.000000   0.208496  -0.184247
   38  H  2  S    0.000000  -0.004844  -0.000000   0.029967  -0.032535
   39  H  2  X    0.000000   0.103108  -0.000000  -0.219975   0.327380
   40  H  2  Y   -0.730042   0.000000  -0.008199  -0.000000  -0.000000
   41  H  2  Z    0.000000   0.739986  -0.000000   0.064167   0.113307
   42  H  2  X    0.000000  -0.160033  -0.000000   0.265370  -0.177076
   43  H  2  Y    0.786187   0.000000  -0.176302  -0.000000  -0.000000
   44  H  2  Z    0.000000  -0.775136  -0.000000  -0.191320   0.351389
   45  H  2 XX    0.000000  -0.065126  -0.000000   0.130413   0.465251
   46  H  2 YY    0.000000  -0.009675  -0.000000  -0.059773  -0.043760
   47  H  2 ZZ    0.000000   0.074801  -0.000000  -0.070640  -0.421491
   48  H  2 XY    0.491585   0.000000  -0.531595  -0.000000  -0.000000
   49  H  2 XZ    0.000000  -0.459963  -0.000000  -0.483494   0.459560
   50  H  2 YZ   -0.049674   0.000000   0.003605  -0.000000  -0.000000
   51  H  3  S    0.000000   0.044897  -0.000000  -0.124746  -0.169992
   52  H  3  S    0.000000  -0.221340  -0.000000   0.208496   0.184247
   53  H  3  S    0.000000  -0.004844  -0.000000   0.029967   0.032535
   54  H  3  X    0.000000  -0.103108  -0.000000   0.219975   0.327380
   55  H  3  Y   -0.730042   0.000000  -0.008199  -0.000000  -0.000000
   56  H  3  Z    0.000000   0.739986  -0.000000   0.064167  -0.113307
   57  H  3  X    0.000000   0.160033  -0.000000  -0.265370  -0.177076
   58  H  3  Y    0.786187   0.000000  -0.176302  -0.000000  -0.000000
   59  H  3  Z    0.000000  -0.775136  -0.000000  -0.191320  -0.351389
   60  H  3 XX    0.000000  -0.065126  -0.000000   0.130413  -0.465251
   61  H  3 YY    0.000000  -0.009675  -0.000000  -0.059773   0.043760
   62  H  3 ZZ    0.000000   0.074801  -0.000000  -0.070640   0.421491
   63  H  3 XY   -0.491585   0.000000   0.531595  -0.000000  -0.000000
   64  H  3 XZ    0.000000   0.459963  -0.000000   0.483494   0.459560
   65  H  3 YZ   -0.049674   0.000000   0.003605  -0.000000  -0.000000

                     41         42         43         44         45
                    4.7090     4.8413     4.9209     5.0721     5.6525
                     A1         A2         B1         A1         B2  
    1  O  1  S    0.012557  -0.000000   0.000000   0.498321  -0.000000
    2  O  1  S    0.654989  -0.000000   0.000000   0.986552  -0.000000
    3  O  1  S    0.590381  -0.000000   0.000000   0.157288  -0.000000
    4  O  1  S    4.136869  -0.000000   0.000000   1.302702  -0.000000
    5  O  1  X    0.000000  -0.000000   0.471272  -0.000000  -0.000000
    6  O  1  Y    0.000000  -0.000000   0.000000  -0.000000  -0.011795
    7  O  1  Z   -0.139229  -0.000000   0.000000  -0.235658  -0.000000
    8  O  1  X    0.000000  -0.000000   1.054190  -0.000000  -0.000000
    9  O  1  Y    0.000000  -0.000000   0.000000  -0.000000   0.025220
   10  O  1  Z    0.595987  -0.000000   0.000000   0.758986  -0.000000
   11  O  1  X    0.000000  -0.000000   1.226764  -0.000000  -0.000000
   12  O  1  Y    0.000000  -0.000000   0.000000  -0.000000   0.003206
   13  O  1  Z    0.332495  -0.000000   0.000000   0.258708  -0.000000
   14  O  1 XX   -0.230883  -0.000000   0.000000  -0.022175  -0.000000
   15  O  1 YY    0.115977  -0.000000   0.000000   0.011857  -0.000000
   16  O  1 ZZ    0.114906  -0.000000   0.000000   0.010317  -0.000000
   17  O  1 XY    0.000000  -0.069081   0.000000  -0.000000  -0.000000
   18  O  1 XZ    0.000000  -0.000000  -0.035066  -0.000000  -0.000000
   19  O  1 YZ    0.000000  -0.000000   0.000000  -0.000000   0.041644
   20  O  1 XX    1.892864  -0.000000   0.000000  -0.744799  -0.000000
   21  O  1 YY   -0.984676  -0.000000   0.000000   0.251866  -0.000000
   22  O  1 ZZ   -0.908189  -0.000000   0.000000   0.492934  -0.000000
   23  O  1 XY    0.000000   1.421940   0.000000  -0.000000  -0.000000
   24  O  1 XZ    0.000000  -0.000000  -0.688610  -0.000000  -0.000000
   25  O  1 YZ    0.000000  -0.000000   0.000000  -0.000000   0.017534
   26  O  1 XXX   0.000000  -0.000000   0.296800  -0.000000  -0.000000
   27  O  1 YYY   0.000000  -0.000000   0.000000  -0.000000  -0.772378
   28  O  1 ZZZ  -0.070912  -0.000000   0.000000  -0.083709  -0.000000
   29  O  1 XXY   0.000000  -0.000000   0.000000  -0.000000  -0.032541
   30  O  1 XXZ   0.131442  -0.000000   0.000000   0.100205  -0.000000
   31  O  1 YYX   0.000000  -0.000000  -0.366449  -0.000000  -0.000000
   32  O  1 YYZ  -0.036303  -0.000000   0.000000   0.012103  -0.000000
   33  O  1 ZZX   0.000000  -0.000000  -0.031749  -0.000000  -0.000000
   34  O  1 ZZY   0.000000  -0.000000   0.000000  -0.000000   1.068794
   35  O  1 XYZ   0.000000  -0.213466   0.000000  -0.000000  -0.000000
   36  H  2  S   -0.371157  -0.000000  -0.294807   0.703940  -0.000000
   37  H  2  S   -2.386222  -0.000000   1.661019  -1.194396  -0.000000
   38  H  2  S   -0.179179  -0.000000   0.168189  -0.095125  -0.000000
   39  H  2  X   -0.738598  -0.000000   0.073911   0.601328  -0.000000
   40  H  2  Y    0.000000   0.362914   0.000000  -0.000000  -0.005076
   41  H  2  Z    0.334972  -0.000000  -0.218347  -0.222881  -0.000000
   42  H  2  X   -1.228449  -0.000000   0.894282  -1.216871  -0.000000
   43  H  2  Y    0.000000   0.420608   0.000000  -0.000000  -0.008333
   44  H  2  Z    0.175479  -0.000000  -0.501660  -0.074535  -0.000000
   45  H  2 XX   -0.703426  -0.000000   0.535542  -0.727144  -0.000000
   46  H  2 YY    0.401783  -0.000000  -0.512020   0.310455  -0.000000
   47  H  2 ZZ    0.301642  -0.000000  -0.023522   0.416689  -0.000000
   48  H  2 XY    0.000000   0.868521   0.000000  -0.000000  -0.034542
   49  H  2 XZ    0.331674  -0.000000  -0.793623  -0.275512  -0.000000
   50  H  2 YZ    0.000000  -0.372109   0.000000  -0.000000  -0.081283
   51  H  3  S   -0.371157  -0.000000   0.294807   0.703940  -0.000000
   52  H  3  S   -2.386222  -0.000000  -1.661019  -1.194396  -0.000000
   53  H  3  S   -0.179179  -0.000000  -0.168189  -0.095125  -0.000000
   54  H  3  X    0.738598  -0.000000   0.073911  -0.601328  -0.000000
   55  H  3  Y    0.000000  -0.362914   0.000000  -0.000000  -0.005076
   56  H  3  Z    0.334972  -0.000000   0.218347  -0.222881  -0.000000
   57  H  3  X    1.228449  -0.000000   0.894282   1.216871  -0.000000
   58  H  3  Y    0.000000  -0.420608   0.000000  -0.000000  -0.008333
   59  H  3  Z    0.175479  -0.000000   0.501660  -0.074535  -0.000000
   60  H  3 XX   -0.703426  -0.000000  -0.535542  -0.727144  -0.000000
   61  H  3 YY    0.401783  -0.000000   0.512020   0.310455  -0.000000
   62  H  3 ZZ    0.301642  -0.000000   0.023522   0.416689  -0.000000
   63  H  3 XY    0.000000   0.868521   0.000000  -0.000000   0.034542
   64  H  3 XZ   -0.331674  -0.000000  -0.793623   0.275512  -0.000000
   65  H  3 YZ    0.000000   0.372109   0.000000  -0.000000  -0.081283

                     46         47         48         49         50
                    5.6535     5.9675     6.2621     6.4232     6.8190
                     A1         B1         A2         B1         B2  
    1  O  1  S   -0.019874   0.000000   0.000000  -0.000000   0.000000
    2  O  1  S   -0.034738   0.000000   0.000000  -0.000000   0.000000
    3  O  1  S   -0.000187   0.000000   0.000000  -0.000000   0.000000
    4  O  1  S   -0.038187   0.000000   0.000000  -0.000000   0.000000
    5  O  1  X    0.000000  -0.539061   0.000000  -0.451053   0.000000
    6  O  1  Y    0.000000   0.000000   0.000000  -0.000000  -0.005733
    7  O  1  Z    0.018570   0.000000   0.000000  -0.000000   0.000000
    8  O  1  X    0.000000   3.212440   0.000000   2.291558   0.000000
    9  O  1  Y    0.000000   0.000000   0.000000  -0.000000   0.000849
   10  O  1  Z   -0.048763   0.000000   0.000000  -0.000000   0.000000
   11  O  1  X    0.000000   2.740616   0.000000   1.824190   0.000000
   12  O  1  Y    0.000000   0.000000   0.000000  -0.000000  -0.072614
   13  O  1  Z   -0.014268   0.000000   0.000000  -0.000000   0.000000
   14  O  1 XX    0.004742   0.000000   0.000000  -0.000000   0.000000
   15  O  1 YY    0.034101   0.000000   0.000000  -0.000000   0.000000
   16  O  1 ZZ   -0.038843   0.000000   0.000000  -0.000000   0.000000
   17  O  1 XY    0.000000   0.000000   0.145104  -0.000000   0.000000
   18  O  1 XZ    0.000000  -0.180736   0.000000   0.008375   0.000000
   19  O  1 YZ    0.000000   0.000000   0.000000  -0.000000   1.169525
   20  O  1 XX    0.039294   0.000000   0.000000  -0.000000   0.000000
   21  O  1 YY   -0.000346   0.000000   0.000000  -0.000000   0.000000
   22  O  1 ZZ   -0.038949   0.000000   0.000000  -0.000000   0.000000
   23  O  1 XY    0.000000   0.000000   0.583816  -0.000000   0.000000
   24  O  1 XZ    0.000000   0.620648   0.000000   1.130004   0.000000
   25  O  1 YZ    0.000000   0.000000   0.000000  -0.000000  -0.631181
   26  O  1 XXX   0.000000  -0.203983   0.000000  -0.251114   0.000000
   27  O  1 YYY   0.000000   0.000000   0.000000  -0.000000   0.038990
   28  O  1 ZZZ  -0.805324   0.000000   0.000000  -0.000000   0.000000
   29  O  1 XXY   0.000000   0.000000   0.000000  -0.000000  -0.010334
   30  O  1 XXZ   0.027108   0.000000   0.000000  -0.000000   0.000000
   31  O  1 YYX   0.000000   0.657907   0.000000  -0.562964   0.000000
   32  O  1 YYZ   1.053348   0.000000   0.000000  -0.000000   0.000000
   33  O  1 ZZX   0.000000  -0.384236   0.000000   0.899868   0.000000
   34  O  1 ZZY   0.000000   0.000000   0.000000  -0.000000  -0.041977
   35  O  1 XYZ   0.000000   0.000000   1.027978  -0.000000   0.000000
   36  H  2  S   -0.031419  -0.313031   0.000000  -0.052408   0.000000
   37  H  2  S    0.041120   3.764848   0.000000   2.536171   0.000000
   38  H  2  S    0.002163   0.247002   0.000000   0.131766   0.000000
   39  H  2  X   -0.022791   0.476264   0.000000   0.531599   0.000000
   40  H  2  Y    0.000000   0.000000   0.252937  -0.000000  -0.015056
   41  H  2  Z    0.015705   0.035696   0.000000   0.276890   0.000000
   42  H  2  X    0.043071   1.829430   0.000000   1.199687   0.000000
   43  H  2  Y    0.000000   0.000000   0.173707  -0.000000   0.072937
   44  H  2  Z    0.012088  -0.513028   0.000000  -0.134858   0.000000
   45  H  2 XX    0.030141   0.752113   0.000000   0.652872   0.000000
   46  H  2 YY   -0.082941  -0.246622   0.000000  -0.390891   0.000000
   47  H  2 ZZ    0.052800  -0.505490   0.000000  -0.261981   0.000000
   48  H  2 XY    0.000000   0.000000   0.480707  -0.000000   0.020372
   49  H  2 XZ    0.045387  -0.327814   0.000000   0.306039   0.000000
   50  H  2 YZ    0.000000   0.000000   0.135492  -0.000000   0.080726
   51  H  3  S   -0.031419   0.313031   0.000000   0.052408   0.000000
   52  H  3  S    0.041120  -3.764848   0.000000  -2.536171   0.000000
   53  H  3  S    0.002163  -0.247002   0.000000  -0.131766   0.000000
   54  H  3  X    0.022791   0.476264   0.000000   0.531599   0.000000
   55  H  3  Y    0.000000   0.000000  -0.252937  -0.000000  -0.015056
   56  H  3  Z    0.015705  -0.035696   0.000000  -0.276890   0.000000
   57  H  3  X   -0.043071   1.829430   0.000000   1.199687   0.000000
   58  H  3  Y    0.000000   0.000000  -0.173707  -0.000000   0.072937
   59  H  3  Z    0.012088   0.513028   0.000000   0.134858   0.000000
   60  H  3 XX    0.030141  -0.752113   0.000000  -0.652872   0.000000
   61  H  3 YY   -0.082941   0.246622   0.000000   0.390891   0.000000
   62  H  3 ZZ    0.052800   0.505490   0.000000   0.261981   0.000000
   63  H  3 XY    0.000000   0.000000   0.480707  -0.000000  -0.020372
   64  H  3 XZ   -0.045387  -0.327814   0.000000   0.306039   0.000000
   65  H  3 YZ    0.000000   0.000000  -0.135492  -0.000000   0.080726

                     51         52         53         54         55
                    6.8219     7.0817     7.1857     7.3183     7.3858
                     A1         A2         B1         A1         B2  
    1  O  1  S   -0.001178  -0.000000   0.000000  -0.495429  -0.000000
    2  O  1  S   -0.006041  -0.000000   0.000000  -0.664908  -0.000000
    3  O  1  S   -0.004858  -0.000000   0.000000   0.400042  -0.000000
    4  O  1  S   -0.190689  -0.000000   0.000000  -0.209641  -0.000000
    5  O  1  X    0.000000  -0.000000   0.247568  -0.000000  -0.000000
    6  O  1  Y    0.000000  -0.000000   0.000000  -0.000000  -0.308030
    7  O  1  Z    0.001882  -0.000000   0.000000  -0.283521  -0.000000
    8  O  1  X    0.000000  -0.000000  -0.364526  -0.000000  -0.000000
    9  O  1  Y    0.000000  -0.000000   0.000000  -0.000000   0.773011
   10  O  1  Z   -0.024537  -0.000000   0.000000   0.671069  -0.000000
   11  O  1  X    0.000000  -0.000000  -0.659111  -0.000000  -0.000000
   12  O  1  Y    0.000000  -0.000000   0.000000  -0.000000   0.128478
   13  O  1  Z   -0.101781  -0.000000   0.000000   0.060396  -0.000000
   14  O  1 XX   -0.023155  -0.000000   0.000000   0.184586  -0.000000
   15  O  1 YY   -1.001413  -0.000000   0.000000  -0.092957  -0.000000
   16  O  1 ZZ    1.024568  -0.000000   0.000000  -0.091629  -0.000000
   17  O  1 XY    0.000000   1.212207   0.000000  -0.000000  -0.000000
   18  O  1 XZ    0.000000  -0.000000   1.185302  -0.000000  -0.000000
   19  O  1 YZ    0.000000  -0.000000   0.000000  -0.000000  -0.013759
   20  O  1 XX    0.006487  -0.000000   0.000000  -0.176637  -0.000000
   21  O  1 YY    0.548146  -0.000000   0.000000  -0.035076  -0.000000
   22  O  1 ZZ   -0.554633  -0.000000   0.000000   0.211713  -0.000000
   23  O  1 XY    0.000000  -1.085968   0.000000  -0.000000  -0.000000
   24  O  1 XZ    0.000000  -0.000000  -1.072602  -0.000000  -0.000000
   25  O  1 YZ    0.000000  -0.000000   0.000000  -0.000000   0.169809
   26  O  1 XXX   0.000000  -0.000000  -0.256645  -0.000000  -0.000000
   27  O  1 YYY   0.000000  -0.000000   0.000000  -0.000000  -0.816126
   28  O  1 ZZZ  -0.021118  -0.000000   0.000000  -0.725279  -0.000000
   29  O  1 XXY   0.000000  -0.000000   0.000000  -0.000000   1.407080
   30  O  1 XXZ  -0.022878  -0.000000   0.000000   1.345350  -0.000000
   31  O  1 YYX   0.000000  -0.000000   0.307027  -0.000000  -0.000000
   32  O  1 YYZ   0.051210  -0.000000   0.000000  -0.372286  -0.000000
   33  O  1 ZZX   0.000000  -0.000000   0.037299  -0.000000  -0.000000
   34  O  1 ZZY   0.000000  -0.000000   0.000000  -0.000000  -0.312132
   35  O  1 XYZ   0.000000  -0.198692   0.000000  -0.000000  -0.000000
   36  H  2  S   -0.013729  -0.000000  -0.221999  -0.271518  -0.000000
   37  H  2  S    0.107209  -0.000000  -0.475819   0.413729  -0.000000
   38  H  2  S    0.011651  -0.000000  -0.080209  -0.030506  -0.000000
   39  H  2  X   -0.011474  -0.000000  -0.150870  -0.328813  -0.000000
   40  H  2  Y    0.000000  -0.096895   0.000000  -0.000000  -0.392876
   41  H  2  Z   -0.012869  -0.000000  -0.041782  -0.283844  -0.000000
   42  H  2  X    0.080697  -0.000000  -0.129589   0.319024  -0.000000
   43  H  2  Y    0.000000  -0.297894   0.000000  -0.000000  -0.195298
   44  H  2  Z    0.073201  -0.000000  -0.185190  -0.234885  -0.000000
   45  H  2 XX    0.017291  -0.000000   0.080615  -0.131677  -0.000000
   46  H  2 YY   -0.077077  -0.000000  -0.054892  -0.066826  -0.000000
   47  H  2 ZZ    0.059786  -0.000000  -0.025722   0.198503  -0.000000
   48  H  2 XY    0.000000  -0.168015   0.000000  -0.000000  -0.595470
   49  H  2 XZ    0.026876  -0.000000  -0.122303  -0.500679  -0.000000
   50  H  2 YZ    0.000000   0.025585   0.000000  -0.000000   0.171633
   51  H  3  S   -0.013729  -0.000000   0.221999  -0.271518  -0.000000
   52  H  3  S    0.107209  -0.000000   0.475819   0.413729  -0.000000
   53  H  3  S    0.011651  -0.000000   0.080209  -0.030506  -0.000000
   54  H  3  X    0.011474  -0.000000  -0.150870   0.328813  -0.000000
   55  H  3  Y    0.000000   0.096895   0.000000  -0.000000  -0.392876
   56  H  3  Z   -0.012869  -0.000000   0.041782  -0.283844  -0.000000
   57  H  3  X   -0.080697  -0.000000  -0.129589  -0.319024  -0.000000
   58  H  3  Y    0.000000   0.297894   0.000000  -0.000000  -0.195298
   59  H  3  Z    0.073201  -0.000000   0.185190  -0.234885  -0.000000
   60  H  3 XX    0.017291  -0.000000  -0.080615  -0.131677  -0.000000
   61  H  3 YY   -0.077077  -0.000000   0.054892  -0.066826  -0.000000
   62  H  3 ZZ    0.059786  -0.000000   0.025722   0.198503  -0.000000
   63  H  3 XY    0.000000  -0.168015   0.000000  -0.000000   0.595470
   64  H  3 XZ   -0.026876  -0.000000  -0.122303   0.500679  -0.000000
   65  H  3 YZ    0.000000  -0.025585   0.000000  -0.000000   0.171633

                     56         57         58
                    7.9599     8.8229    11.7357
                     A1         B1         A1  
    1  O  1  S    0.290569   0.000000   3.400630
    2  O  1  S    0.178981   0.000000   5.108143
    3  O  1  S   -0.666114   0.000000  -2.726560
    4  O  1  S    1.369093   0.000000   2.862631
    5  O  1  X    0.000000  -0.933058  -0.000000
    6  O  1  Y    0.000000   0.000000  -0.000000
    7  O  1  Z   -0.092911   0.000000  -0.164787
    8  O  1  X    0.000000   4.212859  -0.000000
    9  O  1  Y    0.000000   0.000000  -0.000000
   10  O  1  Z    0.109865   0.000000   0.832787
   11  O  1  X    0.000000   2.018825  -0.000000
   12  O  1  Y    0.000000   0.000000  -0.000000
   13  O  1  Z    0.113784   0.000000   0.398434
   14  O  1 XX   -1.272726   0.000000   0.293664
   15  O  1 YY    0.656934   0.000000  -0.149177
   16  O  1 ZZ    0.615793   0.000000  -0.144487
   17  O  1 XY    0.000000   0.000000  -0.000000
   18  O  1 XZ    0.000000   0.304109  -0.000000
   19  O  1 YZ    0.000000   0.000000  -0.000000
   20  O  1 XX    1.389323   0.000000   1.598584
   21  O  1 YY   -0.714366   0.000000  -0.875858
   22  O  1 ZZ   -0.674957   0.000000  -0.722726
   23  O  1 XY    0.000000   0.000000  -0.000000
   24  O  1 XZ    0.000000   0.263142  -0.000000
   25  O  1 YZ    0.000000   0.000000  -0.000000
   26  O  1 XXX   0.000000   1.432645  -0.000000
   27  O  1 YYY   0.000000   0.000000  -0.000000
   28  O  1 ZZZ  -0.136240   0.000000  -0.245218
   29  O  1 XXY   0.000000   0.000000  -0.000000
   30  O  1 XXZ   0.245189   0.000000   0.448944
   31  O  1 YYX   0.000000  -0.948078  -0.000000
   32  O  1 YYZ  -0.062404   0.000000  -0.119948
   33  O  1 ZZX   0.000000  -0.974017  -0.000000
   34  O  1 ZZY   0.000000   0.000000  -0.000000
   35  O  1 XYZ   0.000000   0.000000  -0.000000
   36  H  2  S   -0.446293   0.523358  -0.231632
   37  H  2  S   -0.570037   3.051012  -2.966548
   38  H  2  S   -0.045447   0.078782   0.095022
   39  H  2  X   -0.080388   1.221215  -0.741201
   40  H  2  Y    0.000000   0.000000  -0.000000
   41  H  2  Z    0.015931  -0.354699   0.151142
   42  H  2  X   -0.209004   1.291892  -1.738965
   43  H  2  Y    0.000000   0.000000  -0.000000
   44  H  2  Z    0.112222  -0.457733   0.253155
   45  H  2 XX    0.273818   0.684948  -0.791394
   46  H  2 YY   -0.147134  -0.420279   0.404158
   47  H  2 ZZ   -0.126684  -0.264669   0.387236
   48  H  2 XY    0.000000   0.000000  -0.000000
   49  H  2 XZ   -0.090742  -0.509108   0.201815
   50  H  2 YZ    0.000000   0.000000  -0.000000
   51  H  3  S   -0.446293  -0.523358  -0.231632
   52  H  3  S   -0.570037  -3.051012  -2.966548
   53  H  3  S   -0.045447  -0.078782   0.095022
   54  H  3  X    0.080388   1.221215   0.741201
   55  H  3  Y    0.000000   0.000000  -0.000000
   56  H  3  Z    0.015931   0.354699   0.151142
   57  H  3  X    0.209004   1.291892   1.738965
   58  H  3  Y    0.000000   0.000000  -0.000000
   59  H  3  Z    0.112222   0.457733   0.253155
   60  H  3 XX    0.273818  -0.684948  -0.791394
   61  H  3 YY   -0.147134   0.420279   0.404158
   62  H  3 ZZ   -0.126684   0.264669   0.387236
   63  H  3 XY    0.000000   0.000000  -0.000000
   64  H  3 XZ    0.090742  -0.509108  -0.201815
   65  H  3 YZ    0.000000   0.000000  -0.000000
 ...... END OF RHF CALCULATION ......
 CPU     0: STEP CPU TIME=     0.44 TOTAL CPU TIME=          0.5 (      0.0 MIN)
 TOTAL WALL CLOCK TIME=          0.5 SECONDS, CPU UTILIZATION IS    93.88%

     ----------------------------------------------------------------
     PROPERTY VALUES FOR THE RHF   SELF-CONSISTENT FIELD WAVEFUNCTION
     ----------------------------------------------------------------

          -----------------
          ENERGY COMPONENTS
          -----------------

         WAVEFUNCTION NORMALIZATION =       1.0000000000

                ONE ELECTRON ENERGY =    -122.1610713051
                TWO ELECTRON ENERGY =      37.5955309367
           NUCLEAR REPULSION ENERGY =       8.5670043785
                                      ------------------
                       TOTAL ENERGY =     -75.9985359899

 ELECTRON-ELECTRON POTENTIAL ENERGY =      37.5955309367
  NUCLEUS-ELECTRON POTENTIAL ENERGY =    -197.8429978843
   NUCLEUS-NUCLEUS POTENTIAL ENERGY =       8.5670043785
                                      ------------------
             TOTAL POTENTIAL ENERGY =    -151.6804625691
               TOTAL KINETIC ENERGY =      75.6819265792
                 VIRIAL RATIO (V/T) =       2.0041834217

          ---------------------------------------
          MULLIKEN AND LOWDIN POPULATION ANALYSES
          ---------------------------------------

     ATOMIC MULLIKEN POPULATION IN EACH MOLECULAR ORBITAL

                      1          2          3          4          5

                  2.000000   2.000000   2.000000   2.000000   2.000000

    1             1.999344   1.700588   1.143646   1.894358   1.936949
    2             0.000328   0.149706   0.428177   0.052821   0.031526
    3             0.000328   0.149706   0.428177   0.052821   0.031526

               ----- POPULATIONS IN EACH AO -----
                             MULLIKEN      LOWDIN
              1  O  1  S      1.95056     1.57146
              2  O  1  S      0.95257     0.50514
              3  O  1  S      0.21620     0.35076
              4  O  1  S      0.59635     0.23997
              5  O  1  X      0.31222     0.24974
              6  O  1  Y      0.49710     0.42747
              7  O  1  Z      0.47610     0.40820
              8  O  1  X      0.59693     0.29324
              9  O  1  Y      0.81618     0.45600
             10  O  1  Z      0.79069     0.44216
             11  O  1  X      0.23089     0.27196
             12  O  1  Y      0.62313     0.46575
             13  O  1  Z      0.60633     0.45797
             14  O  1 XX      0.00009     0.11646
             15  O  1 YY      0.00041     0.11703
             16  O  1 ZZ      0.00000     0.11639
             17  O  1 XY      0.00035     0.00000
             18  O  1 XZ      0.00004     0.00021
[...]
      COMPUTING (VV|VO) INTEGRAL CLASS 
      SCHWARZ INEQUALITY TEST SKIPPED          0 INTEGRAL BLOCKS
      RESTORING (VO|VO) INTEGRAL CLASS

      SOLVING FOR Z-VECTOR
 DDI: Creating Array [3] - 265 x 50 = 13250 words.

      ITERATION         TESTER  EXPANSION VECTOR NORM
      ===============================================

                                 0.000201954342532
         2        0.0001806833
                                 0.000106646178591
         3        0.0001264036
                                 0.000014087785850
         4        0.0000190687
                                 0.000002183519451
         5        0.0000031199
                                 0.000000266855632
         6        0.0000005268
                                 0.000000040427598
         7        0.0000001176
                                 0.000000004887459
         8        0.0000000176
                                 0.000000000365391
         9        0.0000000016
                                 0.000000000025047
        10        0.0000000001
                                 0.000000000002279
        11        0.0000000000

      CONVERGED - WAVEFUNCTIONS STATIONARY


      COMPUTING LAST CONTRIBUTIONS TO THE 1-PARTICLE DENSITY
 ..... DONE WITH MP2 ENERGY .....
 CPU     0: STEP CPU TIME=     0.88 TOTAL CPU TIME=         32.1 (      0.5 MIN)
 TOTAL WALL CLOCK TIME=         32.6 SECONDS, CPU UTILIZATION IS    98.47%
 ..... END OF 1-ELECTRON GRADIENT ......
 CPU     0: STEP CPU TIME=     0.00 TOTAL CPU TIME=         32.1 (      0.5 MIN)
 TOTAL WALL CLOCK TIME=         32.6 SECONDS, CPU UTILIZATION IS    98.47%

      COMPUTING 2-PARTICLE GRADIENT
      FORMING BACK-TRANSFORMED AMPLITUDES
 THE COARSE/FINE SCHWARZ SCREENINGS SKIPPED          0/        13 BLOCKS.
 THE NUMBER OF GRADIENT INTEGRAL BLOCKS COMPUTED WAS    115427
 ..... DONE WITH MP2 GRADIENT .....
 CPU     0: STEP CPU TIME=     0.69 TOTAL CPU TIME=         32.8 (      0.5 MIN)
 TOTAL WALL CLOCK TIME=         33.3 SECONDS, CPU UTILIZATION IS    98.50%

 UNITS ARE HARTREE/BOHR    E'X               E'Y               E'Z 
    1 O               -0.000012115       0.000000310      -0.000055678
    2 H               -0.000008780      -0.000000081       0.000023065
    3 H                0.000020894      -0.000000229       0.000032613
  $VIB   
          IVIB=   2 IATOM=   3 ICOORD=   2 E=      -76.3186577309
 -1.211478593E-05 3.104069766E-07-5.567821494E-05-8.779688566E-06-8.113324736E-08
  2.306471590E-05 2.089447449E-05-2.292737291E-07 3.261349901E-05
 -8.129176126E-06-8.626028458E-03 1.935727091E+00
1   ATOM  3
                                        -------------------
   COORD  3                             NUCLEAR COORDINATES
                                        -------------------
     VIB  2

                       ATOM             X              Y              Z

                 1  O                0.000000       0.000000      -0.496010
                 2  H               -1.423424       0.000000       0.625950
                 3  H                1.423424       0.000000       0.615950
 ...... END OF ONE-ELECTRON INTEGRALS ......
 CPU     0: STEP CPU TIME=     0.00 TOTAL CPU TIME=         32.8 (      0.5 MIN)
 TOTAL WALL CLOCK TIME=         33.3 SECONDS, CPU UTILIZATION IS    98.50%
  ...... END OF TWO-ELECTRON INTEGRALS .....
 CPU     0: STEP CPU TIME=     0.01 TOTAL CPU TIME=         32.8 (      0.5 MIN)
 TOTAL WALL CLOCK TIME=         33.3 SECONDS, CPU UTILIZATION IS    98.50%

          --------------------------
                 RHF SCF CALCULATION
          --------------------------
     DENSITY MATRIX CONV=  2.00E-06

 DIRECT SCF CALCULATION, SCHWRZ=T   FDIFF=T,  DIRTHR=  0.00E+00 NITDIR=10

                                                                                   NONZERO     BLOCKS
 ITER EX DEM     TOTAL ENERGY        E CHANGE  DENSITY CHANGE     ORB. GRAD      INTEGRALS    SKIPPED
          ---------------START SECOND ORDER SCF---------------
   1  0  0      -76.0570888776   -76.0570888776   0.000591259   0.000713965        1106775          0
   2  1  0      -76.0570938225    -0.0000049449   0.000248716   0.000206882        1106775          0
   3  2  0      -76.0570942361    -0.0000004137   0.000060467   0.000075690        1106775          0
   4  3  0      -76.0570942950    -0.0000000589   0.000017625   0.000018389        1106775          0
   5  4  0      -76.0570942989    -0.0000000038   0.000008802   0.000005295        1106775          0
   6  5  0      -76.0570942992    -0.0000000003   0.000001363   0.000000873        1106750          1
   7  6  0      -76.0570942992    -0.0000000000   0.000000515   0.000000267        1106254         36

          -----------------
          DENSITY CONVERGED
          -----------------
     TIME TO FORM FOCK OPERATORS=       0.5 SECONDS (       0.1 SEC/ITER)
     FOCK TIME ON FIRST ITERATION=       0.1, LAST ITERATION=       0.1
     TIME TO SOLVE SCF EQUATIONS=       0.0 SECONDS (       0.0 SEC/ITER)

 FINAL RHF ENERGY IS      -76.0570942992 AFTER   7 ITERATIONS
 ...... END OF RHF CALCULATION ......
 CPU     0: STEP CPU TIME=     0.48 TOTAL CPU TIME=         33.3 (      0.6 MIN)
 TOTAL WALL CLOCK TIME=         33.8 SECONDS, CPU UTILIZATION IS    98.49%



 -----------------------------     ------------------------------
 DISTRIBUTED DATA MP2 GRADIENT     PROGRAM WRITTEN BY G. FLETCHER
 -----------------------------     ------------------------------

 DDI: Creating Array [0] - 4225 x 15 = 63375 words.
 DDI: Creating Array [1] - 53 x 75 = 3975 words.
 DDI: Creating Array [2] - 2145 x 15 = 32175 words.
 DDI: Creating Array [3] - 15 x 15 = 225 words.
    THIS CALCULATION IS RUNNING WITH MWORDS=  250, MEMDDI=    8000, AND P=    2
 MEMORY USAGE PER CPU IS 8*(MWORDS + MEMDDI/P)/1024 =   33.2 GBYTES.

 MINIMAL REQUIREMENT FOR THIS RUN IS MWORDS=    1, MEMDDI=       1.
 FOR P=    2, THE MEMORY USAGE PER CPU(CORE) WOULD BE    0.0 GBYTES.


      DIRECT 4-INDEX TRANSFORMATION 
      SCHWARZ INEQUALITY TEST SKIPPED          0 INTEGRAL BLOCKS

 RESULTS OF MOLLER-PLESSET 2ND ORDER CORRECTION ARE
                     E(SCF)=       -76.0570942992
                       E(2)=        -0.2615524697
                     E(MP2)=       -76.3186467689
 SPIN-COMPONENT-SCALED MP2 RESULTS ARE
                      E(2S)=        -0.1980246215
                      E(2T)=        -0.0635278482
                     E(2ST)=        -0.2588054952 = 6/5 * E(2S) + 1/3 * E(2T)
                    SCS-MP2=       -76.3158997944

      COMPUTING CONTRIBUTIONS TO THE 1-PARTICLE DENSITY MATRICES

      COMPUTING THREE-VIRTUAL CONTRIBUTIONS TO THE LAGRANGIAN
      FORMING BACK-TRANSFORMED AMPLITUDES
      COMPUTING (VV|VO) INTEGRAL CLASS 
      SCHWARZ INEQUALITY TEST SKIPPED          0 INTEGRAL BLOCKS
      RESTORING (VO|VO) INTEGRAL CLASS

      SOLVING FOR Z-VECTOR
 DDI: Creating Array [3] - 265 x 50 = 13250 words.

      ITERATION         TESTER  EXPANSION VECTOR NORM
      ===============================================

                                 0.000201038982344
         2        0.0001796946
                                 0.000105828133644
         3        0.0001253726
                                 0.000013948864707
         4        0.0000188746
                                 0.000002156382298
         5        0.0000030774
                                 0.000000261573267
         6        0.0000005134
                                 0.000000039438724
         7        0.0000001142
                                 0.000000004823425
         8        0.0000000173
                                 0.000000000367130
         9        0.0000000016
                                 0.000000000029704
        10        0.0000000001
                                 0.000000000004980
        11        0.0000000000

      CONVERGED - WAVEFUNCTIONS STATIONARY


      COMPUTING LAST CONTRIBUTIONS TO THE 1-PARTICLE DENSITY
 ..... DONE WITH MP2 ENERGY .....
 CPU     0: STEP CPU TIME=     0.87 TOTAL CPU TIME=         34.1 (      0.6 MIN)
 TOTAL WALL CLOCK TIME=         34.6 SECONDS, CPU UTILIZATION IS    98.50%
 ..... END OF 1-ELECTRON GRADIENT ......
 CPU     0: STEP CPU TIME=     0.01 TOTAL CPU TIME=         34.1 (      0.6 MIN)
 TOTAL WALL CLOCK TIME=         34.6 SECONDS, CPU UTILIZATION IS    98.53%

      COMPUTING 2-PARTICLE GRADIENT
      FORMING BACK-TRANSFORMED AMPLITUDES
 THE COARSE/FINE SCHWARZ SCREENINGS SKIPPED          0/        14 BLOCKS.
 THE NUMBER OF GRADIENT INTEGRAL BLOCKS COMPUTED WAS    115426
 ..... DONE WITH MP2 GRADIENT .....
 CPU     0: STEP CPU TIME=     0.69 TOTAL CPU TIME=         34.8 (      0.6 MIN)
 TOTAL WALL CLOCK TIME=         35.3 SECONDS, CPU UTILIZATION IS    98.56%

 UNITS ARE HARTREE/BOHR    E'X               E'Y               E'Z 
    1 O                0.002750976       0.000000000       0.002290194
    2 H               -0.000335912       0.000000000      -0.000069411
    3 H               -0.002415064       0.000000000      -0.002220783
  $VIB   
          IVIB=   2 IATOM=   3 ICOORD=   3 E=      -76.3186467689
  2.750975840E-03 0.000000000E+00 2.290193973E-03-3.359115679E-04 0.000000000E+00
 -6.941094202E-05-2.415064272E-03 0.000000000E+00-2.220783031E-03
  1.811073711E-03 8.328038401E-17 1.931417362E+00
 ...... END OF NUMERICAL HESSIAN CALCULATION ......
 CPU     0: STEP CPU TIME=     0.01 TOTAL CPU TIME=         34.8 (      0.6 MIN)
 TOTAL WALL CLOCK TIME=         35.3 SECONDS, CPU UTILIZATION IS    98.59%

          ---------------
          ENERGY GRADIENT
          ---------------

 UNITS ARE HARTREE/BOHR    E'X               E'Y               E'Z 
    1 O                0.000000000       0.000000000      -0.000046804
    2 H               -0.000009096       0.000000000       0.000023402
    3 H                0.000009096       0.000000000       0.000023402

          -------------------------------
          CARTESIAN FORCE CONSTANT MATRIX
          -------------------------------

                                   1                          2
                               O                          H         
                          X        Y        Z        X        Y        Z
  1   O            X 0.689937 0.000000-0.000000-0.344968-0.000000 0.271922
                   Y 0.000000 0.000063 0.000000 0.000000-0.000031-0.000000
                   Z-0.000000 0.000000 0.465474 0.206791-0.000000-0.232739
  2   H            X-0.344968 0.000000 0.206791 0.376919-0.000000-0.239353
                   Y-0.000000-0.000031-0.000000-0.000000 0.000023 0.000000
                   Z 0.271922-0.000000-0.232739-0.239353 0.000000 0.223519
  3   H            X-0.344968 0.000000-0.206791-0.031953 0.000000-0.032562
                   Y-0.000000-0.000031 0.000000 0.000000 0.000008-0.000000
                   Z-0.271922 0.000000-0.232739 0.032562 0.000000 0.009222

                                   3
                               H         
                          X        Y        Z
  3   H            X 0.376919-0.000000 0.239353
                   Y-0.000000 0.000023-0.000000
                   Z 0.239353-0.000000 0.223519

          ------------------------          ----------------
          DIPOLE DERIVATIVE TENSOR          (DEBYE/ANGSTROM)
          ------------------------          ----------------

        ATOM                 MU-X           MU-Y           MU-Z
     O          D/DX    -2.386563813    0.000000000   -0.000000123
                D/DY     0.000000000   -3.260082322    0.000000000
                D/DZ     0.000000000    0.000000000   -1.629302071
     H          D/DX     1.193095585    0.000000000    0.300187748
                D/DY     0.000000014    1.630082150   -0.000001457
                D/DZ     0.344421321    0.000000000    0.814652535
     H          D/DX     1.193095585   -0.000000000   -0.300187748
                D/DY     0.000000014    1.630082150    0.000001457
                D/DZ    -0.344421321   -0.000000000    0.814652535

          --------------------------------------------------------
          NORMAL COORDINATE ANALYSIS IN THE HARMONIC APPROXIMATION
          --------------------------------------------------------

          ATOMIC WEIGHTS (AMU)

    1     O                15.99491
    2     H                 1.00782
    3     H                 1.00782

 MODES    1 TO    6 ARE TAKEN AS ROTATIONS AND TRANSLATIONS.

 ANALYZING SYMMETRY OF NORMAL MODES...

 --- SYMMETRY FOR NORMAL MODES ---
 INCLUDING TRANSLATION AND ROTATION
    3*A1     1*A2     3*B1     2*B2  
 EXCLUDING TRANSLATION AND ROTATION (SAYVETZ < 0.01)
    2*A1     0*A2     1*B1     0*B2  

     FREQUENCIES IN CM**-1, IR INTENSITIES IN DEBYE**2/AMU-ANGSTROM**2,
     REDUCED MASSES IN AMU.

                            1           2           3           4           5
       FREQUENCY:        25.13        0.11        0.01        1.73       19.72  
        SYMMETRY:         B1          B2          A1          B1          A2  
    REDUCED MASS:      1.07804     5.93050     6.00360     5.14927     1.00782
    IR INTENSITY:      2.10123     0.00007     0.00000     0.00992     0.00000

  1   O            X  0.06592349 -0.00001060 -0.00000055  0.23165653  0.00000000
                   Y  0.00000040  0.23534032  0.00001424  0.00001061  0.00000000
                   Z  0.00000001 -0.00001426  0.23563346  0.00000056  0.00000000
  2   H            X -0.37869979 -0.00001070 -0.00000197  0.26222964  0.00000003
                   Y  0.00000285  0.23794411  0.00001440  0.00001044  0.70435636
                   Z -0.56410815 -0.00001438  0.23563061  0.03878639 -0.00000004
  3   H            X -0.37869979 -0.00001070  0.00000073  0.26222964 -0.00000003
                   Y  0.00000285  0.23794411  0.00001439  0.00001044 -0.70435636
                   Z  0.56410816 -0.00001414  0.23563077 -0.03878527 -0.00000004

 TRANS. SAYVETZ    X  0.29111407 -0.00019112 -0.00001011  4.23388859  0.00000000
                   Y  0.00001216  4.24385925  0.00025677  0.00019074  0.00000000
                   Z  0.00000010 -0.00025677  4.24388500  0.00001012 -0.00000002
               TOTAL  0.29111407  4.24385926  4.24388501  4.23388859  0.00000002

   ROT. SAYVETZ    X -0.00000493 -0.00522942 -0.00000032  0.00000034  0.00000000
                   Y -2.51147262 -0.00000054 -0.00000035  0.17268405  0.00000000
                   Z  0.00000000  0.00000000 -0.00000001 -0.00000000 -2.02088663
               TOTAL  2.51147262  0.00522942  0.00000048  0.17268405  2.02088663

                            6           7           8           9
       FREQUENCY:        30.31     1651.98     3855.21     3975.43  
        SYMMETRY:         B2          A1          A1          B1  
    REDUCED MASS:      1.12850     1.08259     1.04524     1.08087
    IR INTENSITY:      5.93747     1.52613     0.13567     1.30521

  1   O            X -0.00000013  0.00000000 -0.00000000 -0.06715082
                   Y -0.08446788  0.00000000 -0.00000000  0.00000000
                   Z  0.00000000 -0.06788312 -0.04887374  0.00000000
  2   H            X  0.00000134  0.41154399 -0.57161999  0.53286018
                   Y  0.66294832  0.00000002  0.00000005  0.00000000
                   Z  0.00000186  0.53868575  0.38783206 -0.41999468
  3   H            X  0.00000134 -0.41154399  0.57162000  0.53286017
                   Y  0.66294832 -0.00000002 -0.00000005  0.00000000
                   Z -0.00000186  0.53868575  0.38783208  0.41999467

 TRANS. SAYVETZ    X  0.00000066  0.00000000  0.00000001 -0.00001172
                   Y -0.01478443  0.00000000 -0.00000000  0.00000000
                   Z  0.00000000  0.00001750  0.00000257  0.00000000
               TOTAL  0.01478443  0.00001750  0.00000257  0.00001172

   ROT. SAYVETZ    X -1.50110107  0.00000000 -0.00000000 -0.00000000
                   Y  0.00000828 -0.00000000 -0.00000000  0.00003702
                   Z  0.00000000 -0.00000004 -0.00000015 -0.00000000
               TOTAL  1.50110107  0.00000004  0.00000015  0.00003702

 REFERENCE ON SAYVETZ CONDITIONS - A. SAYVETZ, J.CHEM.PHYS., 7, 383-389(1939).

 NOTE - THE MODES J,K ARE ORTHONORMALIZED ACCORDING TO
 SUM ON I   M(I) * (X(I,J)*X(I,K) + Y(I,J)*Y(I,K) + Z(I,J)*Z(I,K)) = DELTA(J,K)

  MODE FREQ(CM**-1)  SYMMETRY  RED. MASS  IR INTENS.
     1      25.133    B1       1.078040    2.101231
     2       0.106    B2       5.930499    0.000072
     3       0.011    A1       6.003598    0.000000
     4       1.728    B1       5.149272    0.009917
     5      19.716    A2       1.007825    0.000000
     6      30.314    B2       1.128495    5.937471
     7    1651.985    A1       1.082591    1.526130
     8    3855.212    A1       1.045243    0.135675
     9    3975.428    B1       1.080871    1.305205

     -------------------------------
     THERMOCHEMISTRY AT T=  298.15 K
     -------------------------------

 USING IDEAL GAS, RIGID ROTOR, HARMONIC NORMAL MODE APPROXIMATIONS.
 P=  1.01325E+05 PASCAL.
 ALL FREQUENCIES ARE SCALED BY   1.00000
 THE MOMENTS OF INERTIA ARE (IN AMU*BOHR**2)
      2.25333     4.08398     6.33731
 THE ROTATIONAL SYMMETRY NUMBER IS  2.0
 THE ROTATIONAL CONSTANTS ARE (IN GHZ)
    800.18764   441.50241   284.51929
      7 -      9 VIBRATIONAL MODES ARE USED IN THERMOCHEMISTRY.
 THE HARMONIC ZERO POINT ENERGY IS (SCALED BY   1.000)
        0.021603 HARTREE/MOLECULE     4741.312186 CM**-1/MOLECULE 
       13.556105 KCAL/MOL               56.718745 KJ/MOL

               Q               LN Q
 ELEC.     1.00000E+00       0.000000
 TRANS.    3.00431E+06      14.915558
 ROT.      4.32234E+01       3.766381
 VIB.      1.00035E+00       0.000345
 TOT.      1.29901E+08      18.682284

              E         H         G         CV        CP        S
           KJ/MOL    KJ/MOL    KJ/MOL   J/MOL-K   J/MOL-K   J/MOL-K
 ELEC.      0.000     0.000     0.000     0.000     0.000     0.000
 TRANS.     3.718     6.197   -36.975    12.472    20.786   144.800
 ROT.       3.718     3.718    -9.337    12.472    12.472    43.787
 VIB.      56.726    56.726    56.718     0.182     0.182     0.026
 TOTAL     64.162    66.641    10.406    25.126    33.440   188.613
 VIB. THERMAL CORRECTION E(T)-E(0) = H(T)-H(0) =     6.821 J/MOL

              E         H         G         CV        CP        S
         KCAL/MOL  KCAL/MOL  KCAL/MOL CAL/MOL-K CAL/MOL-K CAL/MOL-K
 ELEC.      0.000     0.000     0.000     0.000     0.000     0.000
 TRANS.     0.889     1.481    -8.837     2.981     4.968    34.608
 ROT.       0.889     0.889    -2.232     2.981     2.981    10.465
 VIB.      13.558    13.558    13.556     0.044     0.044     0.006
 TOTAL     15.335    15.928     2.487     6.005     7.992    45.080
 VIB. THERMAL CORRECTION E(T)-E(0) = H(T)-H(0) =     1.630 CAL/MOL
 ......END OF NORMAL COORDINATE ANALYSIS......
 CPU     0: STEP CPU TIME=     0.00 TOTAL CPU TIME=         34.8 (      0.6 MIN)
 TOTAL WALL CLOCK TIME=         35.3 SECONDS, CPU UTILIZATION IS    98.59%
               580000  WORDS OF DYNAMIC MEMORY USED
 EXECUTION OF GAMESS TERMINATED NORMALLY Sun Jul  3 22:20:28 2022
 DDI: 740432 bytes (0.7 MB / 0 MWords) used by master data server.

 ----------------------------------------
 CPU timing information for all processes
 ========================================
 0: 34.602 + 0.240 = 34.842
 1: 34.576 + 0.132 = 34.708
 ----------------------------------------
Note: The following floating-point exceptions are signalling: IEEE_DENORMAL
Note: The following floating-point exceptions are signalling: IEEE_DENORMAL
 ddikick.x: exited gracefully.
unset echo
----- accounting info -----
Files used on the master node cpu001 were:
-rw-r--r-- 1 bjb2chen nooijen     524 Jul  3 22:19 /scratch/bjb2chen/h2o_cct_mp2_c2v_gh.F05
-rw-r--r-- 1 bjb2chen nooijen 2224960 Jul  3 22:20 /scratch/bjb2chen/h2o_cct_mp2_c2v_gh.F10
ls: No match.
ls: No match.
ls: No match.
Sun 03 Jul 2022 10:20:31 PM EDT
0.130u 0.014s 0:38.52 0.3%	0+0k 0+200io 0pf+0w
