----- GAMESS execution script 'rungms' -----
This job is running on host io003
under operating system Linux at Tue 08 Nov 2022 09:05:23 PM EST
Available scratch disk space (Kbyte units) at beginning of the job is
Filesystem                  1K-blocks      Used Available Use% Mounted on
/dev/mapper/scratch-scratch 768943464 394188844 335667928  55% /scratch
GAMESS temporary binary files will be written to /scratch/bjb2chen
GAMESS supplementary output files will be written to /home/bjb2chen/.gamess_ascii_files/267587
Copying input file h2scat_cct_gmcpt_6o7e_3st_diab_as0.0.inp to your run's scratch directory...
cp h2scat_cct_gmcpt_6o7e_3st_diab_as0.0.inp /scratch/bjb2chen/h2scat_cct_gmcpt_6o7e_3st_diab_as0.0.F05
unset echo
/home/bjb2chen/gamess/ddikick.x /home/bjb2chen/gamess/gamess.00.x h2scat_cct_gmcpt_6o7e_3st_diab_as0.0 -ddi 1 1 io003 -scr /scratch/bjb2chen

 Distributed Data Interface kickoff program.
 Initiating 1 compute processes on 1 nodes to run the following command:
 /home/bjb2chen/gamess/gamess.00.x h2scat_cct_gmcpt_6o7e_3st_diab_as0.0 

          ******************************************************
          *         GAMESS VERSION = 02 AUG 2018 (R2)         *
          *             FROM IOWA STATE UNIVERSITY             *
          * M.W.SCHMIDT, K.K.BALDRIDGE, J.A.BOATZ, S.T.ELBERT, *
          *   M.S.GORDON, J.H.JENSEN, S.KOSEKI, N.MATSUNAGA,   *
          *          K.A.NGUYEN, S.J.SU, T.L.WINDUS,           *
          *       TOGETHER WITH M.DUPUIS, J.A.MONTGOMERY       *
          *         J.COMPUT.CHEM.  14, 1347-1363(1993)        *
          **************** 64 BIT LINUX VERSION ****************

  SINCE 1993, STUDENTS AND POSTDOCS WORKING AT IOWA STATE UNIVERSITY
  AND ALSO IN THEIR VARIOUS JOBS AFTER LEAVING ISU HAVE MADE IMPORTANT
  CONTRIBUTIONS TO THE CODE:
     IVANA ADAMOVIC, CHRISTINE AIKENS, YURI ALEXEEV, POOJA ARORA,
     ANDREY ASADCHEV, ROB BELL, PRADIPTA BANDYOPADHYAY, JONATHAN BENTZ,
     BRETT BODE, KURT BRORSEN, CALEB CARLIN, GALINA CHABAN, WEI CHEN,
     CHEOL HO CHOI, PAUL DAY, ALBERT DEFUSCO, NUWAN DESILVA, TIM DUDLEY,
     DMITRI FEDOROV, ALEX FINDLATER, GRAHAM FLETCHER, MARK FREITAG,
     KURT GLAESEMANN, ANASTASIA GUININA,
     DAN KEMP, GRANT MERRILL, NORIYUKI MINEZAWA, JONATHAN MULLIN,
     TAKESHI NAGATA, SEAN NEDD, HEATHER NETZLOFF, BOSILJKA NJEGIC, RYAN OLSON,
     MIKE PAK, BUU PHAM,
     SPENCER PRUITT, LUKE ROSKOP, JIM SHOEMAKER, LYUDMILA SLIPCHENKO,
     TONY SMITH, SAROM SOK LEANG, JIE SONG, TETSUYA TAKETSUGU, SIMON WEBB,
     PENG XU, SOOHAENG YOO, FEDERICO ZAHARIEV

  ADDITIONAL CODE HAS BEEN PROVIDED BY COLLABORATORS IN OTHER GROUPS:
     IOWA STATE UNIVERSITY:
          JOE IVANIC, AARON WEST, LAIMUTIS BYTAUTAS, KLAUS RUEDENBERG
     UNIVERSITY OF TOKYO: KIMIHIKO HIRAO, TAKAHITO NAKAJIMA,
          TAKAO TSUNEDA, MUNEAKI KAMIYA, SUSUMU YANAGISAWA,
          KIYOSHI YAGI, MAHITO CHIBA, SEIKEN TOKURA, NAOAKI KAWAKAMI
     UNIVERSITY OF AARHUS: FRANK JENSEN
     UNIVERSITY OF IOWA: VISVALDAS KAIRYS, HUI LI
     NATIONAL INST. OF STANDARDS AND TECHNOLOGY: WALT STEVENS, DAVID GARMER
     UNIVERSITY OF PISA: BENEDETTA MENNUCCI, JACOPO TOMASI
     UNIVERSITY OF MEMPHIS: HENRY KURTZ, PRAKASHAN KORAMBATH
     UNIVERSITY OF ALBERTA: TOBY ZENG, MARIUSZ KLOBUKOWSKI
     UNIVERSITY OF NEW ENGLAND: MARK SPACKMAN
     MIE UNIVERSITY: HIROAKI UMEDA
     NAT. INST. OF ADVANCED INDUSTRIAL SCIENCE AND TECHNOLOGY: KAZUO KITAURA
     MICHIGAN STATE UNIVERSITY:
          KAROL KOWALSKI, MARTA WLOCH, JEFFREY GOUR, JESSE LUTZ,
          WEI LI, JUN SHEN, J. EMILIANO DEUSTUA, PIOTR PIECUCH
     UNIVERSITY OF MINNESOTA:
          YINAN SHU
     UNIVERSITY OF SILESIA: MONIKA MUSIAL, STANISLAW KUCHARSKI
     FACULTES UNIVERSITAIRES NOTRE-DAME DE LA PAIX:
          OLIVIER QUINET, BENOIT CHAMPAGNE
     UNIVERSITY OF CALIFORNIA - SANTA BARBARA: BERNARD KIRTMAN
     INSTITUTE FOR MOLECULAR SCIENCE:
          KAZUYA ISHIMURA, MICHIO KATOUDA, AND SHIGERU NAGASE
     UNIVERSITY OF NOTRE DAME: ANNA POMOGAEVA, DAN CHIPMAN
     KYUSHU UNIVERSITY:
          HARUYUKI NAKANO,
          FENG LONG GU, JACEK KORCHOWIEC, MARCIN MAKOWSKI, AND YURIKO AOKI,
          HIROTOSHI MORI AND EISAKU MIYOSHI
     PENNSYLVANIA STATE UNIVERSITY:
          TZVETELIN IORDANOV, CHET SWALINA, JONATHAN SKONE,
          SHARON HAMMES-SCHIFFER
     WASEDA UNIVERSITY:
          MASATO KOBAYASHI, TOMOKO AKAMA, TSUGUKI TOUMA,
          TAKESHI YOSHIKAWA, YASUHIRO IKABATA, JUNJI SEINO,
          YUYA NAKAJIMA, HIROMI NAKAI
     NANJING UNIVERSITY: SHUHUA LI
     UNIVERSITY OF NEBRASKA:
          PEIFENG SU, DEJUN SI, NANDUN THELLAMUREGE, YALI WANG, HUI LI
     UNIVERSITY OF ZURICH: ROBERTO PEVERATI, KIM BALDRIDGE
     N. COPERNICUS UNIVERSITY AND JACKSON STATE UNIVERSITY:
          MARIA BARYSZ
     UNIVERSITY OF COPENHAGEN: Jimmy Kromann, CASPER STEINMANN
     TOKYO INSTITUTE OF TECHNOLOGY: HIROYA NAKATA
     NAGOYA UNIVERSITY: YOSHIO NISHIMOTO, STEPHAN IRLE
     MOSCOW STATE UNIVERSITY: VLADIMIR MIRONOV

 EXECUTION OF GAMESS BEGUN Tue Nov  8 21:05:23 2022

            ECHO OF THE FIRST FEW INPUT CARDS -
 INPUT CARD> !Step 4: single point gmcpt calculation averaging 3 states                     
 INPUT CARD> !        for H2S+ at H2S structure. The RHF orbitals at                        
 INPUT CARD> !        the MP2 optimized structure is taken as the initial                   
 INPUT CARD> !        guess of orbitals in the $VEC group. 3 states are asked               
 INPUT CARD> !        for because state 4 and 5 are a bit higher. Now with the DMO group.   
 INPUT CARD> !        The calculation should generate the DMO for diabatization calculation.
 INPUT CARD> !        Now with the REFDET group to do diabatization.                        
 INPUT CARD> $system kdiag=3 mwords=100 memddi=1000 parall=.t. $end                         
 INPUT CARD> $contrl runtyp=energy ispher=1 $end                                            
 INPUT CARD> $contrl icut=9 itol=20 inttyp=rysquad qmttol=1.0d-05 nosym=1 $end              
 INPUT CARD> $scf    npunch=2 conv=1.0d-06 dirscf=.t.      $end                             
 INPUT CARD> $contrl scftyp=mcscf  mult=2 maxit=200 icharg=1 mplevl=2 $end                  
 INPUT CARD> $guess  guess=moread norb=67 purify=.t. $end                                   
 INPUT CARD> $basis  gbasis=cct $end                                                        
 INPUT CARD> $mcscf  cistep=gmcci fullnr=.t. finci=mos                                      
 INPUT CARD>         acurcy=1.d-6 maxit=100 $end                                            
 INPUT CARD> $trans  dirtrf=.t. $end                                                        
 INPUT CARD> $mrmp   mrpt=gmcpt rdvecs=.f. $end                                             
 INPUT CARD> $gmcpt  nmofzc=1 nmodoc=4 nmoact=6 nelact=7 stsym(1)=A                         
 INPUT CARD>         reftyp=ormas nspace=1 mstart(1)=6 mine(1)=7 maxe(1)=7                  
 INPUT CARD>         kstate(1)=1,1,1                                                        
 INPUT CARD>         wstate(1)=1,1,1                                                        
 INPUT CARD>         iwgt=0 thrwgt=-1.0 krot=.f. kszdoe=.f. knospn=.f.                      
 INPUT CARD>         thrde=-1.0 edshft=0.02 $end                                            
 INPUT CARD> $data                                                                          
 INPUT CARD> H2S+ 5 states calculation at H2S structure.                                    
 INPUT CARD> C1                                                                             
 INPUT CARD>S 16.0 0 0 -.1250090427                                                         
 INPUT CARD>H 1.0 -.9598753091 0 .7990945214                                                
 INPUT CARD>H 1.0 .9598753091 0 .7990945214                                                 
 INPUT CARD> $END                                                                           
 INPUT CARD>--- OPTIMIZED RHF      MO-S --- GENERATED AT Thu Oct 27 10:13:22 2022           
 INPUT CARD>E=     -398.9058481329, E(NUC)=   12.9846624426                                 
 INPUT CARD> $VEC                                                                           
 INPUT CARD> 1  1 1.00011026E+00 1.43520516E-04 1.30762006E-04-7.19841046E-04-4.04367933E-05
 INPUT CARD> 1  2 0.00000000E+00 0.00000000E+00 1.46481549E-04 0.00000000E+00 0.00000000E+00
 INPUT CARD> 1  3 1.53800072E-04 0.00000000E+00 0.00000000E+00-7.74673354E-05 0.00000000E+00
 INPUT CARD> 1  4 0.00000000E+00-6.12563802E-06 8.50208756E-06-9.50065215E-06 9.98564596E-07
 INPUT CARD> 1  5 0.00000000E+00 0.00000000E+00 0.00000000E+00 1.49530933E-05-4.16980391E-05
 INPUT CARD> 1  6 2.67449458E-05 0.00000000E+00 0.00000000E+00 0.00000000E+00 0.00000000E+00
 INPUT CARD> 1  7 0.00000000E+00-1.67146408E-06 0.00000000E+00 1.76499637E-05 0.00000000E+00
 INPUT CARD> 1  8-1.54074593E-05 0.00000000E+00 0.00000000E+00 0.00000000E+00-1.83884890E-06
 INPUT CARD> 1  9 2.36115839E-06-5.22309483E-07 0.00000000E+00 0.00000000E+00 0.00000000E+00
 INPUT CARD> 1 10-6.24513082E-07-9.98605962E-05 1.10759173E-05-2.55516507E-06 0.00000000E+00
 INPUT CARD> 1 11 2.50401905E-06-4.41737445E-05 0.00000000E+00 3.25175870E-05-2.07356794E-06
 INPUT CARD> 1 12 6.55129107E-07 1.41843883E-06 0.00000000E+00-1.34329310E-06 0.00000000E+00
 INPUT CARD> 1 13-6.24513082E-07-9.98605962E-05 1.10759173E-05 2.55516507E-06 0.00000000E+00
 INPUT CARD> 1 14 2.50401905E-06 4.41737445E-05 0.00000000E+00 3.25175870E-05-2.07356794E-06
 INPUT CARD> 1 15 6.55129107E-07 1.41843883E-06 0.00000000E+00 1.34329310E-06 0.00000000E+00
 INPUT CARD> 2  1 3.15060126E-04-9.47897368E-01 1.19814733E-03-7.03217165E-02-2.35194099E-03
  100000000 WORDS OF MEMORY AVAILABLE

     BASIS OPTIONS
     -------------
     GBASIS=CCT          IGAUSS=       0      POLAR=NONE    
     NDFUNC=       0     NFFUNC=       0     DIFFSP=       F
     NPFUNC=       0      DIFFS=       F     BASNAM=        


     RUN TITLE
     ---------
  H2S+ 5 states calculation at H2S structure.                                    

 THE POINT GROUP OF THE MOLECULE IS C1      
 THE ORDER OF THE PRINCIPAL AXIS IS     0

 ATOM      ATOMIC                      COORDINATES (BOHR)
           CHARGE         X                   Y                   Z
 S          16.0     0.0000000000        0.0000000000       -0.2362328367
 H           1.0    -1.8139013166        0.0000000000        1.5100696837
 H           1.0     1.8139013166        0.0000000000        1.5100696837

          INTERNUCLEAR DISTANCES (ANGS.)
          ------------------------------

                1 S          2 H          3 H     

   1 S       0.0000000    1.3324144 *  1.3324144 *
   2 H       1.3324144 *  0.0000000    1.9197506 *
   3 H       1.3324144 *  1.9197506 *  0.0000000  

  * ... LESS THAN  3.000


     ATOMIC BASIS SET
     ----------------
 THE CONTRACTED PRIMITIVE FUNCTIONS HAVE BEEN UNNORMALIZED
 THE CONTRACTED BASIS FUNCTIONS ARE NOW NORMALIZED TO UNITY

  SHELL TYPE  PRIMITIVE        EXPONENT          CONTRACTION COEFFICIENT(S)

 S         

      1   S       1        374100.0000000    0.000054209268
      1   S       2         56050.0000000    0.000420818270
      1   S       3         12760.0000000    0.002206787384
      1   S       4          3615.0000000    0.009191777710
      1   S       5          1183.0000000    0.032109497373
      1   S       6           428.8000000    0.094660037747
      1   S       7           167.8000000    0.223610482509
      1   S       8            69.4700000    0.374360324545
      1   S       9            29.8400000    0.329079276830
      1   S      10            12.7200000    0.084696407407
      1   S      11             5.2440000    0.000440812524
      1   S      12             2.2190000    0.001648126146
      1   S      13             0.3490000    0.000301279703

      2   S      14        374100.0000000   -0.000015779023
      2   S      15         56050.0000000   -0.000122365697
      2   S      16         12760.0000000   -0.000644045337
      2   S      17          3615.0000000   -0.002689248357
      2   S      18          1183.0000000   -0.009569414953
      2   S      19           428.8000000   -0.029175032745
      2   S      20           167.8000000   -0.075823808684
      2   S      21            69.4700000   -0.154211865224
      2   S      22            29.8400000   -0.205508406220
      2   S      23            12.7200000    0.008626751105
      2   S      24             5.2440000    0.544021768700
      2   S      25             2.2190000    0.570956375443
      2   S      26             0.3490000   -0.009668025289

      3   S      27        374100.0000000    0.000006823816
      3   S      28         56050.0000000    0.000052878906
      3   S      29         12760.0000000    0.000278673749
      3   S      30          3615.0000000    0.001162407410
      3   S      31          1183.0000000    0.004149991892
      3   S      32           428.8000000    0.012665073653
      3   S      33           167.8000000    0.033294544367
      3   S      34            69.4700000    0.068749008698
      3   S      35            29.8400000    0.096101773381
      3   S      36            12.7200000   -0.005670123205
      3   S      37             5.2440000   -0.320764818841
      3   S      38             2.2190000   -0.598947641366
      3   S      39             0.3490000    1.120107735959

      4   S      40             0.7767000    1.000000000000

      5   S      41             0.1322000    1.000000000000

      6   P      42           574.4000000    0.002496922983
      6   P      43           135.8000000    0.019870751061
      6   P      44            43.1900000    0.091254916388
      6   P      45            15.8700000    0.262462200493
      6   P      46             6.2080000    0.447290816633
      6   P      47             2.4830000    0.365836568252
      6   P      48             0.3229000   -0.005183992799

      7   P      49           574.4000000   -0.001064023915
      7   P      50           135.8000000   -0.008474448710
      7   P      51            43.1900000   -0.039919557083
      7   P      52            15.8700000   -0.117571603827
      7   P      53             6.2080000   -0.212591326962
      7   P      54             2.4830000   -0.166354909681
      7   P      55             0.3229000    0.977014802934

      8   P      56             0.8688000    1.000000000000

      9   P      57             0.1098000    1.000000000000

     10   D      58             0.8120000    1.000000000000

     11   D      59             0.2730000    1.000000000000

     12   F      60             0.5570000    1.000000000000

     13   D      61             3.7560000    1.000000000000

 H         

     14   S      62            33.8700000    0.025494863235
     14   S      63             5.0950000    0.190362765893
     14   S      64             1.1590000    0.852162022245

     15   S      65             0.3258000    1.000000000000

     16   S      66             0.1027000    1.000000000000

     17   P      67             1.4070000    1.000000000000

     18   P      68             0.3880000    1.000000000000

     19   D      69             1.0570000    1.000000000000

 H         

     20   S      70            33.8700000    0.025494863235
     20   S      71             5.0950000    0.190362765893
     20   S      72             1.1590000    0.852162022245

     21   S      73             0.3258000    1.000000000000

     22   S      74             0.1027000    1.000000000000

     23   P      75             1.4070000    1.000000000000

     24   P      76             0.3880000    1.000000000000

     25   D      77             1.0570000    1.000000000000

 TOTAL NUMBER OF BASIS SET SHELLS             =   25
 NUMBER OF CARTESIAN GAUSSIAN BASIS FUNCTIONS =   75
 NOTE: THIS RUN WILL RESTRICT THE MO VARIATION SPACE TO SPHERICAL HARMONICS.
 THE NUMBER OF ORBITALS KEPT IN THE VARIATIONAL SPACE WILL BE PRINTED LATER.
 NUMBER OF ELECTRONS                          =   17
 CHARGE OF MOLECULE                           =    1
 SPIN MULTIPLICITY                            =    2
 NUMBER OF OCCUPIED ORBITALS (ALPHA)          =    9
 NUMBER OF OCCUPIED ORBITALS (BETA )          =    8
 TOTAL NUMBER OF ATOMS                        =    3
 THE NUCLEAR REPULSION ENERGY IS       12.9846624423

     $CONTRL OPTIONS
     ---------------
 SCFTYP=MCSCF        RUNTYP=ENERGY       EXETYP=RUN     
 MPLEVL=       2     CITYP =NONE         CCTYP =NONE         VBTYP =NONE    
 DFTTYP=NONE         TDDFT =NONE    
 MULT  =       2     ICHARG=       1     NZVAR =       0     COORD =UNIQUE  
 PP    =NONE         RELWFN=NONE         LOCAL =NONE         NUMGRD=       F
 ISPHER=       1     NOSYM =       1     MAXIT =     200     UNITS =ANGS    
 PLTORB=       F     MOLPLT=       F     AIMPAC=       F     FRIEND=        
 NPRINT=       7     IREST =       0     GEOM  =INPUT   
 NORMF =       0     NORMP =       0     ITOL  =      20     ICUT  =       9
 INTTYP=RYSQUAD      GRDTYP=BEST         QMTTOL= 1.0E-05

     $SYSTEM OPTIONS
     ---------------
  REPLICATED MEMORY=   100000000 WORDS (ON EVERY NODE).
 DISTRIBUTED MEMDDI=        1000 MILLION WORDS IN AGGREGATE,
 MEMDDI DISTRIBUTED OVER   1 PROCESSORS IS  1000000000 WORDS/PROCESSOR.
 TOTAL MEMORY REQUESTED ON EACH PROCESSOR=  1100000000 WORDS.
 TIMLIM=      525600.00 MINUTES, OR     365.0 DAYS.
 PARALL= T  BALTYP=  DLB     KDIAG=    3  COREFL= F
 MXSEQ2=     300 MXSEQ3=     150  mem10=         0

          ----------------
          PROPERTIES INPUT
          ----------------

     MOMENTS            FIELD           POTENTIAL          DENSITY
 IEMOM =       1   IEFLD =       0   IEPOT =       0   IEDEN =       0
 WHERE =COMASS     WHERE =NUCLEI     WHERE =NUCLEI     WHERE =NUCLEI  
 OUTPUT=BOTH       OUTPUT=BOTH       OUTPUT=BOTH       OUTPUT=BOTH    
 IEMINT=       0   IEFINT=       0                     IEDINT=       0
                                                       MORB  =       0

     -------------------------------
     INTEGRAL TRANSFORMATION OPTIONS
     -------------------------------
     NWORD  =            0
     CUTOFF = 1.0E-09     MPTRAN =       0
     DIRTRF =       T     AOINTS =DUP     

          ----------------------
          MCSCF INPUT PARAMETERS
          ----------------------
 CONVERGER SELECTION: FOCAS = F  SOSCF = F  FULLNR = T  QUD = F  JACOBI = F
 SECULAR EQUATION METHOD CISTEP = GMCCI   
 --- GENERAL INPUT OPTIONS:
 MAXIT =     100  MICIT =       1  ACURCY= 1.000E-06
 DAMP  =   0.000  CANONC=       T  ENGTOL= 1.000E-10
 EKT   =       F  NPUNCH=       2  NWORD =         0
 REGENERATE CI AFTER CONVERGENCE = NONE    
 DIABATIZATION AFTER CONVERGENCE =        F
 --- INPUT FOR FULLNR CONVERGER:
 METHOD=DM2       FORS  =       F  DROPC =       T
 LINSER=       F  FCORE =       F  NORB  =      75

          ----------------------
          INTEGRAL INPUT OPTIONS
          ----------------------
 NOPK  =       1 NORDER=       0 SCHWRZ=       T

 ------------------------------------------
 MULTIREFERENCE PERTURBATION THEORY CONTROL
 ------------------------------------------
 MRPT=GMCPT    READ CONVERGED MCSCF VECTORS= F


     ------------------------------------------
     THE POINT GROUP IS C1 , NAXIS= 1, ORDER= 1
     ------------------------------------------

 -- VARIATIONAL SPACE WILL BE RESTRICTED TO PURE SPHERICAL HARMONICS ONLY --
 AFTER EXCLUDING CONTAMINANT COMBINATIONS FROM THE CARTESIAN GAUSSIAN BASIS
 SET, THE NUMBER OF SPHERICAL HARMONICS KEPT IN THE VARIATION SPACE IS   67

     DIMENSIONS OF THE SYMMETRY SUBSPACES ARE
 A   =   67

 ..... DONE SETTING UP THE RUN .....
 CPU     0: STEP CPU TIME=     0.03 TOTAL CPU TIME=          0.0 (      0.0 MIN)
 TOTAL WALL CLOCK TIME=          0.0 SECONDS, CPU UTILIZATION IS    75.00%

          ********************
          1 ELECTRON INTEGRALS
          ********************
 TIME TO DO   DIPOLE INTEGRALS=      0.00
 ...... END OF ONE-ELECTRON INTEGRALS ......
 CPU     0: STEP CPU TIME=     0.00 TOTAL CPU TIME=          0.0 (      0.0 MIN)
 TOTAL WALL CLOCK TIME=          0.0 SECONDS, CPU UTILIZATION IS    75.00%

          -------------
          GUESS OPTIONS
          -------------
          GUESS =MOREAD            NORB  =      67          NORDER=       0
          MIX   =       F          PRTMO =       F          PUNMO =       F
          TOLZ  = 1.0E-08          TOLE  = 1.0E-05
          SYMDEN=       F          PURIFY=       T

 INITIAL GUESS ORBITALS GENERATED BY MOREAD   ROUTINE.

 STATISTICS FOR GENERATION OF SYMMETRY ORBITAL -Q- MATRIX
 NUMBER OF CARTESIAN ATOMIC ORBITALS=         75
 NUMBER OF SPHERICAL CONTAMINANTS DROPPED=     8
 NUMBER OF LINEARLY DEPENDENT MOS DROPPED=     0
 TOTAL NUMBER OF MOS IN VARIATION SPACE=      67
 ORBITAL PURIFICATION WILL OCCUR

 SYMMETRIES FOR INITIAL GUESS ORBITALS FOLLOW.   BOTH SET(S).
     9 ORBITALS ARE OCCUPIED (    5 CORE ORBITALS).
     1=A        2=A        3=A        4=A        5=A        6=A        7=A   
     8=A        9=A       10=A       11=A       12=A       13=A       14=A   
    15=A       16=A       17=A       18=A       19=A       20=A       21=A   
    22=A       23=A       24=A       25=A       26=A       27=A       28=A   
    29=A       30=A       31=A       32=A       33=A       34=A       35=A   
    36=A       37=A       38=A       39=A       40=A       41=A       42=A   
    43=A       44=A       45=A       46=A       47=A       48=A       49=A   
    50=A       51=A       52=A       53=A       54=A       55=A       56=A   
    57=A       58=A       59=A       60=A       61=A       62=A       63=A   
    64=A       65=A       66=A       67=A   
 ...... END OF INITIAL ORBITAL SELECTION ......
 CPU     0: STEP CPU TIME=     0.02 TOTAL CPU TIME=          0.1 (      0.0 MIN)
 TOTAL WALL CLOCK TIME=          0.1 SECONDS, CPU UTILIZATION IS    83.33%

                    ----------------------
                    AO INTEGRAL TECHNOLOGY
                    ----------------------
     S,P,L SHELL ROTATED AXIS INTEGRALS, REPROGRAMMED BY
        KAZUYA ISHIMURA (IMS) AND JOSE SIERRA (SYNSTAR).
     S,P,D,L SHELL ROTATED AXIS INTEGRALS PROGRAMMED BY
        KAZUYA ISHIMURA (INSTITUTE FOR MOLECULAR SCIENCE).
     S,P,D,F,G SHELL TO TOTAL QUARTET ANGULAR MOMENTUM SUM 5,
        ERIC PROGRAM BY GRAHAM FLETCHER (ELORET AND NASA ADVANCED
        SUPERCOMPUTING DIVISION, AMES RESEARCH CENTER).
     S,P,D,F,G,L SHELL GENERAL RYS QUADRATURE PROGRAMMED BY
        MICHEL DUPUIS (PACIFIC NORTHWEST NATIONAL LABORATORY).

          --------------------
          2 ELECTRON INTEGRALS
          --------------------

 DIRECT SCF METHOD SKIPS INTEGRAL STORAGE ON DISK.
 DIRECT TRANSFORMATION SKIPS AO INTEGRAL STORAGE ON DISK.
  ...... END OF TWO-ELECTRON INTEGRALS .....
 STEP CPU TIME =     0.01 TOTAL CPU TIME =          0.1 (      0.0 MIN)
 TOTAL WALL CLOCK TIME=          0.1 SECONDS, CPU UTILIZATION IS    85.71%
 DDI: Creating Array [0] - 5625 x 66 = 371250 words.
 DDI: Creating Array [1] - 56 x 726 = 40656 words.
 DDI: Creating Array [2] - 66 x 66 = 4356 words.
 DDI: Creating Array [3] - 2850 x 66 = 188100 words.

          -----------------
          MCSCF CALCULATION
          -----------------

 ----- NUCLEAR ENERGY ----- =        12.9846624423

     -------------------------------------------------
     GMC-PT/GMC-QDPT or general MCSCF input parameters
     -------------------------------------------------
 # of frozen core orbs. =         1 ->         0
 # of doubly occ. orbs. =         4
 # of active      orbs. =         6
 # of virtual     orbs. =        56
 # of active electrons  =         7
 # of states in CI      =         3
 Highest state in CI    =         3
 kstate =  1 1 1
 avecoe =  0.333 0.333 0.333
 State symmetry           = A           
 Assigned symmetry number = 1

 <<<Act. MO sym.: 111111

 <<<Division of 1-ext.:  0
 <<<Division of 2-ext.:  0

 *** Reference space

 Reference type: ORMAS (= Occupation restricted multiple active space)
 # of orbitals          =  6
 # of minimum electrons =  7
 # of maximum electrons =  7
 State symmetry    =    1 (input)
 2*Sz              =    1 (input)
 Spin multiplicity =    2 (input)
 Dimension of reference space =       300  (from       792 walks)

 Dimension of reference space =       300  (from       300 walks)

 <<<Ionized spaces for Ref-CI:
      0:          300 /   -1-0:          625 /  0-1-0:          690

 EVALUATING EXCHANGE INTEGRALS FOR DIRECT INTEGRAL TRANSFORMATION
 SCHWARZ INEQUALITY OVERHEAD:      2850 INTEGRALS, T=        0.01

     --------------------------------------------
     PARTIAL TWO ELECTRON INTEGRAL TRANSFORMATION
     --------------------------------------------

 NUMBER OF CORE MOLECULAR ORBITALS     =    5
 NUMBER OF OCCUPIED MOLECULAR ORBITALS =   11
 TOTAL NUMBER OF MOLECULAR ORBITALS    =   67
 TOTAL NUMBER OF ATOMIC ORBITALS       =   75
 THRESHOLD FOR KEEPING TRANSFORMED 2E- INTEGRALS = 1.000E-09

 -------------------------------     ------------------------------
 DISTRIBUTED DATA TRANSFORMATION     PROGRAM WRITTEN BY G. FLETCHER
 -------------------------------     ------------------------------

 THE DISTRIBUTED MEMORY REQUIRED FOR THIS STEP IS MEMDDI=         1 MWORDS
 CREATING DISTRIBUTED STORAGE FOR [VIR OCC|VIR OCC] INTEGRALS
 CREATING DISTRIBUTED STORAGE FOR [VIR OCC|OCC OCC] INTEGRALS
 CREATING DISTRIBUTED STORAGE FOR [OCC OCC|OCC OCC] INTEGRALS
 CREATING DISTRIBUTED STORAGE FOR [VIR VIR|OCC OCC] INTEGRALS
 FOR    1 PROCESSORS, THE REPLICATED MEMORY NEEDED IS      304672 WORDS.
 SCHWARZ INEQUALITY OVERHEAD:      2850 INTEGRALS, T=        0.01

      DIRECT 4-INDEX TRANSFORMATION 
      SCHWARZ INEQUALITY TEST SKIPPED          0 INTEGRAL BLOCKS
 ----- FROZEN CORE ENERGY =      -395.4940190374
 ... END OF INTEGRAL TRANSFORMATION ...
 CPU     0: STEP CPU TIME=     1.99 TOTAL CPU TIME=          2.0 (      0.0 MIN)
 TOTAL WALL CLOCK TIME=          2.1 SECONDS, CPU UTILIZATION IS    99.51%

     --------------------------------     -----------------------------
     MCHF NEWTON-RAPHSON OPTIMIZATION     CODE WRITTEN BY MICHEL DUPUIS
     --------------------------------     -----------------------------
     PARALLEL VERSION WRITTEN BY G. FLETCHER (ELORET)
     NASA ADVANCED SUPERCOMPUTING DIVISION, AMES RESEARCH CENTER

 NUMBER OF INDEPENDENT ORBITAL ROTATION PARAMETERS =   208
 ..... DONE SOLVING NEWTON-RAPHSON EQUATIONS .....
 CPU     0: STEP CPU TIME=     0.14 TOTAL CPU TIME=          2.2 (      0.0 MIN)
 TOTAL WALL CLOCK TIME=          2.2 SECONDS, CPU UTILIZATION IS    99.55%
 ..... DONE WITH NTN-RPH ORBITAL ROTATIONS ..... 
 CPU     0: STEP CPU TIME=     0.00 TOTAL CPU TIME=          2.2 (      0.0 MIN)
 TOTAL WALL CLOCK TIME=          2.2 SECONDS, CPU UTILIZATION IS    99.55%
 MAXIMUM MEMORY USED BY NTN-RPH CODE WAS    110094 WORDS.

 ITER     TOTAL ENERGY      DEL(E)  LAGRANGIAN ASYMMETRY   SQCDF  MICIT   DAMP
   1     -398.238979087 -0.238979087  0.118587   14    9 1.292E-01  1   0.0000
   2     -398.274224461 -0.035245374  0.015555   14    9 3.718E-01  1   0.0000
   3     -398.291969896 -0.017745434  0.006929   13   10 1.537E-01  1   0.0069
   4     -398.297845604 -0.005875708  0.002176   13   10 1.305E-02  1   0.0014
   5     -398.298241913 -0.000396309  0.000574   21   10 1.448E-03  1   0.0000
   6     -398.298308180 -0.000066267  0.000437   21   10 7.075E-04  1   0.0000
   7     -398.298344482 -0.000036302  0.000332   21   10 4.231E-04  1   0.0000
   8     -398.298366760 -0.000022277  0.000258   21   10 2.723E-04  1   0.0000
   9     -398.298381132 -0.000014372  0.000203   21   10 1.811E-04  1   0.0000
  10     -398.298390638 -0.000009506  0.000161   21   10 1.221E-04  1   0.0000
  11     -398.298396994 -0.000006356  0.000128   21   10 8.255E-05  1   0.0000
  12     -398.298401255 -0.000004261  0.000102   21   10 5.572E-05  1   0.0000
  13     -398.298404108 -0.000002853  0.000081   21   10 3.746E-05  1   0.0000
  14     -398.298406012 -0.000001904  0.000067   16   10 2.506E-05  1   0.0000
  15     -398.298407277 -0.000001265  0.000056   16   10 1.668E-05  1   0.0000
  16     -398.298408114 -0.000000837  0.000046   16   10 1.105E-05  1   0.0000
  17     -398.298408665 -0.000000551  0.000038   16   10 7.288E-06  1   0.0000
  18     -398.298409027 -0.000000362  0.000031   16   10 4.791E-06  1   0.0000
  19     -398.298409264 -0.000000237  0.000026   16   10 3.140E-06  1   0.0000
  20     -398.298409419 -0.000000155  0.000021   16   10 2.052E-06  1   0.0000
  21     -398.298409520 -0.000000101  0.000017   16   10 1.339E-06  1   0.0000
  22     -398.298409585 -0.000000066  0.000014   16   10 8.716E-07  1   0.0000
  23     -398.298409628 -0.000000043  0.000011   16   10 5.666E-07  1   0.0000
  24     -398.298409655 -0.000000028  0.000009   16   10 3.679E-07  1   0.0000
  25     -398.298409673 -0.000000018  0.000007   16   10 2.386E-07  1   0.0000
  26     -398.298409685 -0.000000012  0.000006   16   10 1.543E-07  1   0.0000
  27     -398.298409692 -0.000000007  0.000005   16   10 1.001E-07  1   0.0000
  28     -398.298409697 -0.000000005  0.000004   16   10 6.482E-08  1   0.0000
  29     -398.298409700 -0.000000003  0.000003   16   10 4.193E-08  1   0.0000
  30     -398.298409702 -0.000000002  0.000002   16   10 2.711E-08  1   0.0000
  31     -398.298409704 -0.000000001  0.000002   16   10 1.752E-08  1   0.0000
  32     -398.298409705 -0.000000001  0.000002   16   10 1.129E-08  1   0.0000
  33     -398.298409705 -0.000000001  0.000001   16   10 7.314E-09  1   0.0000
  34     -398.298409705 -0.000000000  0.000001   16   10 4.729E-09  1   0.0000
  35     -398.298409706 -0.000000000  0.000001   16   10 3.054E-09  1   0.0000

          --------------------
          LAGRANGIAN CONVERGED
          --------------------

 FINAL MCSCF ENERGY IS     -398.2984097056 AFTER  35 ITERATIONS

 -MCCI- BASED ON OPTIMIZED ORBITALS
 ----------------------------------

 PLEASE NOTE: IF THE ACTIVE ORBITALS ARE CANONICALIZED BELOW,
 THE FOLLOWING CI EXPANSION COEFFICIENTS AND THE DENSITY DO NOT
 CORRESPOND TO THE PRINTED ORBITALS.  THE PRINTED EXPANSIONS MATCH
 THE ORBITALS USED DURING THE LAST ITERATION.  IF YOU WISH TO SEE
 CI EXPANSIONS BASED ON THE CANONICAL (OR NATURAL) ORBITALS, YOU
 MUST RUN A CI CALCULATION WITH THAT ORBITAL CHOICE READ IN $VEC.

 Averaged energy =    -398.298409706

 State #    1  Energy =    -398.405912301  S =  0.500

      Det      Coef    Occupancy (Ignoring core)
      ---      ----    --------- --------- -----
        1    0.975104  111100111000
        5   -0.085382  011110111000
        8   -0.085115  101101111000
       47   -0.062682  111010011100
      157    0.077522  110101110001
      166    0.057252  111100101001
      173    0.068220  101101101001

 State #    2  Energy =    -398.286740679  S =  0.500

      Det      Coef    Occupancy (Ignoring core)
      ---      ----    --------- --------- -----
       16   -0.974036  111100110100
       18    0.073683  110110110100
       23    0.064693  101101110100
       53   -0.066664  101101011100
       62    0.066128  111010110010
      121   -0.066883  111100010110
      196   -0.081054  111100100101
      203   -0.071662  101101100101

 State #    3  Energy =    -398.202576137  S =  0.500

      Det      Coef    Occupancy (Ignoring core)
      ---      ----    --------- --------- -----
        6    0.058899  111001111000
       19   -0.060863  101110110100
       31   -0.974770  111100101100
       52   -0.086381  110101011100
       77    0.070254  111010101010
      136   -0.069659  111100001110
      202    0.076979  110101100101

 DENSITY MATRIX OVER ACTIVE MO-S

             1           2           3           4           5

    1    1.9815011
    2   -0.0000000   1.6474304
    3    0.0015471  -0.0000000   1.6451971
    4    0.0000000  -0.0000000   0.0000000   1.6559533
    5    0.0941338  -0.0000000   0.0391587  -0.0000000   0.0320819
    6   -0.0000000  -0.0756311   0.0000000  -0.0000000  -0.0000000

             6

    6    0.0378363

 FORMING THE "STANDARD FOCK OPERATOR" IN DIRECT AO INTEGRAL MODE...
 ONLY THE    5 CORE AND   56 VIRTUAL ORBITALS WILL BE CANONICALIZED

          ----------------------
          MCSCF NATURAL ORBITALS
          ----------------------

                      1          2          3          4          5
                  -92.3465    -9.3469    -7.0274    -7.0268    -7.0253
                     A          A          A          A          A   
    1  S  1  S    1.000105  -0.000212   0.000000  -0.000327   0.000000
    2  S  1  S    0.000107   0.948434   0.000000  -0.004924   0.000000
    3  S  1  S    0.000209  -0.003786   0.000000   0.002148   0.000000
    4  S  1  S   -0.000681   0.069426  -0.000000   0.001941   0.000000
    5  S  1  S   -0.000007   0.001223   0.000000  -0.000527   0.000000
    6  S  1  X   -0.000000  -0.000000   0.967836  -0.000000   0.000000
    7  S  1  Y   -0.000000  -0.000000   0.000000  -0.000000   0.971188
    8  S  1  Z    0.000108   0.002659   0.000000   0.969109   0.000000
    9  S  1  X   -0.000000  -0.000000  -0.003577   0.000000   0.000000
   10  S  1  Y   -0.000000  -0.000000   0.000000  -0.000000   0.000334
   11  S  1  Z    0.000134  -0.001290   0.000000  -0.001358   0.000000
   12  S  1  X   -0.000000   0.000000   0.064176  -0.000000   0.000000
   13  S  1  Y   -0.000000  -0.000000   0.000000  -0.000000   0.060244
   14  S  1  Z   -0.000055   0.001099   0.000000   0.062944   0.000000
   15  S  1  X   -0.000000  -0.000000   0.001516  -0.000000   0.000000
   16  S  1  Y   -0.000000  -0.000000   0.000000  -0.000000   0.001629
   17  S  1  Z   -0.000005   0.000249   0.000000   0.001360   0.000000
   18  S  1 XX    0.000009   0.000149   0.000000   0.000027   0.000000
   19  S  1 YY   -0.000011  -0.000215   0.000000  -0.000477   0.000000
   20  S  1 ZZ    0.000002   0.000066   0.000000   0.000450   0.000000
   21  S  1 XY   -0.000000  -0.000000   0.000000  -0.000000   0.000000
   22  S  1 XZ   -0.000000  -0.000000   0.000722  -0.000000   0.000000
   23  S  1 YZ   -0.000000  -0.000000   0.000000  -0.000000   0.000214
   24  S  1 XX    0.000013  -0.000190   0.000000   0.000121   0.000000
   25  S  1 YY   -0.000034   0.000408  -0.000000   0.000711   0.000000
   26  S  1 ZZ    0.000022  -0.000219   0.000000  -0.000832   0.000000
   27  S  1 XY   -0.000000  -0.000000   0.000000  -0.000000   0.000000
   28  S  1 XZ   -0.000000  -0.000000  -0.002172   0.000000   0.000000
   29  S  1 YZ   -0.000000  -0.000000   0.000000  -0.000000  -0.000144
   30  S  1 XXX  -0.000000  -0.000000   0.000115  -0.000000   0.000000
   31  S  1 YYY  -0.000000  -0.000000   0.000000  -0.000000  -0.000170
   32  S  1 ZZZ  -0.000002  -0.000058   0.000000  -0.000113   0.000000
   33  S  1 XXY  -0.000000  -0.000000   0.000000  -0.000000   0.000149
   34  S  1 XXZ   0.000016   0.000064   0.000000   0.000235   0.000000
   35  S  1 YYX  -0.000000   0.000000   0.000090  -0.000000   0.000000
   36  S  1 YYZ  -0.000014   0.000014  -0.000000  -0.000083   0.000000
   37  S  1 ZZX  -0.000000  -0.000000  -0.000245  -0.000000   0.000000
   38  S  1 ZZY  -0.000000  -0.000000   0.000000  -0.000000   0.000079
   39  S  1 XYZ  -0.000000  -0.000000   0.000000  -0.000000   0.000000
   40  S  1 XX   -0.000001   0.000417   0.000000  -0.000495   0.000000
   41  S  1 YY    0.000002  -0.000523   0.000000  -0.000239   0.000000
   42  S  1 ZZ   -0.000000   0.000106   0.000000   0.000735   0.000000
   43  S  1 XY   -0.000000  -0.000000   0.000000  -0.000000   0.000000
   44  S  1 XZ   -0.000000  -0.000000   0.000345  -0.000000   0.000000
   45  S  1 YZ   -0.000000  -0.000000   0.000000  -0.000000   0.000637
   46  H  2  S    0.000013  -0.000198  -0.000347   0.000705   0.000000
   47  H  2  S   -0.000062   0.000138  -0.003185   0.002267   0.000000
   48  H  2  S    0.000012  -0.000394   0.000411   0.000026   0.000000
   49  H  2  X   -0.000001  -0.000030   0.000103  -0.000064   0.000000
   50  H  2  Y   -0.000000  -0.000000   0.000000  -0.000000   0.000027
   51  H  2  Z    0.000001   0.000038  -0.000082   0.000082   0.000000
   52  H  2  X   -0.000033   0.000197  -0.000836   0.000931   0.000000
   53  H  2  Y   -0.000000  -0.000000   0.000000  -0.000000   0.000127
   54  H  2  Z    0.000024  -0.000115   0.001169  -0.000313   0.000000
   55  H  2 XX   -0.000001   0.000009   0.000070   0.000012   0.000000
   56  H  2 YY   -0.000000   0.000036  -0.000108   0.000064   0.000000
   57  H  2 ZZ    0.000001  -0.000045   0.000039  -0.000075   0.000000
   58  H  2 XY   -0.000000  -0.000000   0.000000  -0.000000  -0.000035
   59  H  2 XZ   -0.000003   0.000069  -0.000103   0.000125   0.000000
   60  H  2 YZ   -0.000000  -0.000000   0.000000  -0.000000   0.000040
   61  H  3  S    0.000013  -0.000198   0.000347   0.000705   0.000000
   62  H  3  S   -0.000062   0.000138   0.003185   0.002267   0.000000
   63  H  3  S    0.000012  -0.000394  -0.000411   0.000026   0.000000
   64  H  3  X    0.000001   0.000030   0.000103   0.000064   0.000000
   65  H  3  Y   -0.000000  -0.000000   0.000000  -0.000000   0.000027
   66  H  3  Z    0.000001   0.000038   0.000082   0.000082   0.000000
   67  H  3  X    0.000033  -0.000197  -0.000836  -0.000931   0.000000
   68  H  3  Y   -0.000000  -0.000000   0.000000  -0.000000   0.000127
   69  H  3  Z    0.000024  -0.000115  -0.001169  -0.000313   0.000000
   70  H  3 XX   -0.000001   0.000009  -0.000070   0.000012   0.000000
   71  H  3 YY   -0.000000   0.000036   0.000108   0.000064   0.000000
   72  H  3 ZZ    0.000001  -0.000045  -0.000039  -0.000075   0.000000
   73  H  3 XY   -0.000000  -0.000000   0.000000  -0.000000   0.000035
   74  H  3 XZ    0.000003  -0.000069  -0.000103  -0.000125   0.000000
   75  H  3 YZ   -0.000000  -0.000000   0.000000  -0.000000   0.000040

                      6          7          8          9         10
                    1.9861     1.6560     1.6510     1.6461     0.0343
                     A          A          A          A          A   
    1  S  1  S    0.001289  -0.000000   0.000000  -0.002259  -0.000000
    2  S  1  S    0.009911  -0.000000   0.000000  -0.023528  -0.000000
    3  S  1  S    0.580435  -0.000000   0.000000  -0.294084  -0.000000
    4  S  1  S    0.073000  -0.000000   0.000000  -0.045756   0.000000
    5  S  1  S    0.243123  -0.000000   0.000000  -0.231840  -0.000000
    6  S  1  X   -0.000000  -0.000000  -0.021162  -0.000000   0.098234
    7  S  1  Y   -0.000000   0.009139   0.000000   0.000000  -0.000000
    8  S  1  Z   -0.022550  -0.000000   0.000000  -0.010911  -0.000000
    9  S  1  X   -0.000000  -0.000000   0.420860   0.000000   0.716471
   10  S  1  Y   -0.000000   0.621584   0.000000   0.000000  -0.000000
   11  S  1  Z    0.070955  -0.000000  -0.000000   0.480627  -0.000000
   12  S  1  X   -0.000000  -0.000000   0.175141   0.000000   0.238341
   13  S  1  Y   -0.000000   0.238987   0.000000   0.000000  -0.000000
   14  S  1  Z    0.037291  -0.000000  -0.000000   0.194159   0.000000
   15  S  1  X   -0.000000  -0.000000   0.108249   0.000000   0.163387
   16  S  1  Y   -0.000000   0.288255   0.000000   0.000000  -0.000000
   17  S  1  Z    0.015572  -0.000000  -0.000000   0.158222  -0.000000
   18  S  1 XX    0.008975  -0.000000  -0.000000   0.008160  -0.000000
   19  S  1 YY   -0.015193  -0.000000   0.000000  -0.023949   0.000000
   20  S  1 ZZ    0.006218  -0.000000  -0.000000   0.015790  -0.000000
   21  S  1 XY   -0.000000  -0.000000   0.000000   0.000000  -0.000000
   22  S  1 XZ   -0.000000  -0.000000   0.061360   0.000000  -0.175455
   23  S  1 YZ   -0.000000   0.011818   0.000000   0.000000  -0.000000
   24  S  1 XX    0.002536  -0.000000   0.000000   0.003607  -0.000000
   25  S  1 YY   -0.005408  -0.000000   0.000000  -0.025164   0.000000
   26  S  1 ZZ    0.002872  -0.000000  -0.000000   0.021557  -0.000000
   27  S  1 XY   -0.000000  -0.000000   0.000000   0.000000  -0.000000
   28  S  1 XZ   -0.000000  -0.000000   0.053242   0.000000  -0.097129
   29  S  1 YZ   -0.000000   0.026045   0.000000   0.000000  -0.000000
   30  S  1 XXX  -0.000000  -0.000000  -0.000295   0.000000   0.001211
   31  S  1 YYY  -0.000000  -0.007257   0.000000   0.000000  -0.000000
   32  S  1 ZZZ  -0.001942  -0.000000   0.000000   0.000543  -0.000000
   33  S  1 XXY  -0.000000   0.006381   0.000000   0.000000  -0.000000
   34  S  1 XXZ   0.007612  -0.000000   0.000000   0.011401  -0.000000
   35  S  1 YYX  -0.000000  -0.000000  -0.013276  -0.000000   0.020807
   36  S  1 YYZ  -0.005006  -0.000000   0.000000  -0.012129   0.000000
   37  S  1 ZZX  -0.000000  -0.000000   0.013671   0.000000  -0.022432
   38  S  1 ZZY  -0.000000   0.003356   0.000000   0.000000  -0.000000
   39  S  1 XYZ  -0.000000  -0.000000   0.000000   0.000000  -0.000000
   40  S  1 XX    0.001501  -0.000000   0.000000   0.001786  -0.000000
   41  S  1 YY   -0.002655  -0.000000   0.000000  -0.005113  -0.000000
   42  S  1 ZZ    0.001154  -0.000000   0.000000   0.003327  -0.000000
   43  S  1 XY   -0.000000  -0.000000   0.000000   0.000000  -0.000000
   44  S  1 XZ   -0.000000  -0.000000   0.012099   0.000000  -0.019583
   45  S  1 YZ   -0.000000   0.002578   0.000000   0.000000  -0.000000
   46  H  2  S    0.084005  -0.000000  -0.138526   0.093081   0.223585
   47  H  2  S    0.116869  -0.000000  -0.227238   0.167877   0.456764
   48  H  2  S    0.000697  -0.000000  -0.042334   0.037377   0.015550
   49  H  2  X    0.008069  -0.000000  -0.006986   0.006852   0.021471
   50  H  2  Y   -0.000000   0.005423   0.000000   0.000000  -0.000000
   51  H  2  Z   -0.006943  -0.000000   0.010123  -0.002490  -0.014412
   52  H  2  X    0.016626  -0.000000  -0.011414   0.017659   0.080256
   53  H  2  Y   -0.000000   0.023300   0.000000   0.000000  -0.000000
   54  H  2  Z   -0.013598  -0.000000   0.020297   0.001406  -0.057328
   55  H  2 XX    0.001510  -0.000000   0.000202   0.002676   0.007560
   56  H  2 YY   -0.002082  -0.000000   0.002227  -0.001660  -0.008363
   57  H  2 ZZ    0.000572  -0.000000  -0.002429  -0.001016   0.000803
   58  H  2 XY   -0.000000   0.002260   0.000000   0.000000  -0.000000
   59  H  2 XZ   -0.003415  -0.000000   0.003255  -0.001638  -0.010319
   60  H  2 YZ   -0.000000  -0.002131   0.000000   0.000000  -0.000000
   61  H  3  S    0.084005  -0.000000   0.138526   0.093081  -0.223585
   62  H  3  S    0.116869  -0.000000   0.227238   0.167877  -0.456764
   63  H  3  S    0.000697  -0.000000   0.042334   0.037377  -0.015550
   64  H  3  X   -0.008069  -0.000000  -0.006986  -0.006852   0.021471
   65  H  3  Y   -0.000000   0.005423   0.000000   0.000000  -0.000000
   66  H  3  Z   -0.006943  -0.000000  -0.010123  -0.002490   0.014412
   67  H  3  X   -0.016626  -0.000000  -0.011414  -0.017659   0.080256
   68  H  3  Y   -0.000000   0.023300   0.000000   0.000000  -0.000000
   69  H  3  Z   -0.013598  -0.000000  -0.020297   0.001406   0.057328
   70  H  3 XX    0.001510  -0.000000  -0.000202   0.002676  -0.007560
   71  H  3 YY   -0.002082  -0.000000  -0.002227  -0.001660   0.008363
   72  H  3 ZZ    0.000572  -0.000000   0.002429  -0.001016  -0.000803
   73  H  3 XY   -0.000000  -0.002260   0.000000   0.000000  -0.000000
   74  H  3 XZ    0.003415  -0.000000   0.003255   0.001638  -0.010319
   75  H  3 YZ   -0.000000  -0.002131   0.000000   0.000000  -0.000000

                     11
                    0.0266
                     A   
    1  S  1  S    0.009361
    2  S  1  S    0.079278
    3  S  1  S    0.345830
    4  S  1  S    0.041912
    5  S  1  S    0.397059
    6  S  1  X    0.000000
    7  S  1  Y    0.000000
    8  S  1  Z    0.083288
    9  S  1  X    0.000000
   10  S  1  Y    0.000000
   11  S  1  Z    0.584681
   12  S  1  X   -0.000000
   13  S  1  Y    0.000000
   14  S  1  Z    0.202188
   15  S  1  X    0.000000
   16  S  1  Y    0.000000
   17  S  1  Z    0.196423
   18  S  1 XX   -0.084117
   19  S  1 YY    0.252008
   20  S  1 ZZ   -0.167891
   21  S  1 XY    0.000000
   22  S  1 XZ    0.000000
   23  S  1 YZ    0.000000
   24  S  1 XX   -0.084782
   25  S  1 YY    0.245500
   26  S  1 ZZ   -0.160718
   27  S  1 XY    0.000000
   28  S  1 XZ    0.000000
   29  S  1 YZ    0.000000
   30  S  1 XXX   0.000000
   31  S  1 YYY   0.000000
   32  S  1 ZZZ  -0.002652
   33  S  1 XXY   0.000000
   34  S  1 XXZ  -0.035843
   35  S  1 YYX  -0.000000
   36  S  1 YYZ   0.039401
   37  S  1 ZZX   0.000000
   38  S  1 ZZY   0.000000
   39  S  1 XYZ   0.000000
   40  S  1 XX   -0.010237
   41  S  1 YY    0.027631
   42  S  1 ZZ   -0.017393
   43  S  1 XY    0.000000
   44  S  1 XZ    0.000000
   45  S  1 YZ    0.000000
   46  H  2  S   -0.222191
   47  H  2  S   -0.478587
   48  H  2  S   -0.056927
   49  H  2  X   -0.018965
   50  H  2  Y    0.000000
   51  H  2  Z    0.016663
   52  H  2  X   -0.074250
   53  H  2  Y    0.000000
   54  H  2  Z    0.050151
   55  H  2 XX   -0.007138
   56  H  2 YY    0.006746
   57  H  2 ZZ    0.000392
   58  H  2 XY    0.000000
   59  H  2 XZ    0.010280
   60  H  2 YZ    0.000000
   61  H  3  S   -0.222191
   62  H  3  S   -0.478587
   63  H  3  S   -0.056927
   64  H  3  X    0.018965
   65  H  3  Y    0.000000
   66  H  3  Z    0.016663
   67  H  3  X    0.074250
   68  H  3  Y    0.000000
   69  H  3  Z    0.050151
   70  H  3 XX   -0.007138
   71  H  3 YY    0.006746
   72  H  3 ZZ    0.000392
   73  H  3 XY    0.000000
   74  H  3 XZ   -0.010280
   75  H  3 YZ    0.000000

          ------------------------
          MCSCF OPTIMIZED ORBITALS
          ------------------------

                      1          2          3          4          5
                  -92.3465    -9.3469    -7.0274    -7.0268    -7.0253
                     A          A          A          A          A   
    1  S  1  S    1.000105  -0.000212   0.000000  -0.000327   0.000000
    2  S  1  S    0.000107   0.948434   0.000000  -0.004924   0.000000
    3  S  1  S    0.000209  -0.003786   0.000000   0.002148   0.000000
    4  S  1  S   -0.000681   0.069426  -0.000000   0.001941   0.000000
    5  S  1  S   -0.000007   0.001223   0.000000  -0.000527   0.000000
    6  S  1  X   -0.000000  -0.000000   0.967836  -0.000000   0.000000
    7  S  1  Y   -0.000000  -0.000000   0.000000  -0.000000   0.971188
    8  S  1  Z    0.000108   0.002659   0.000000   0.969109   0.000000
    9  S  1  X   -0.000000  -0.000000  -0.003577   0.000000   0.000000
   10  S  1  Y   -0.000000  -0.000000   0.000000  -0.000000   0.000334
   11  S  1  Z    0.000134  -0.001290   0.000000  -0.001358   0.000000
   12  S  1  X   -0.000000   0.000000   0.064176  -0.000000   0.000000
   13  S  1  Y   -0.000000  -0.000000   0.000000  -0.000000   0.060244
   14  S  1  Z   -0.000055   0.001099   0.000000   0.062944   0.000000
   15  S  1  X   -0.000000  -0.000000   0.001516  -0.000000   0.000000
   16  S  1  Y   -0.000000  -0.000000   0.000000  -0.000000   0.001629
   17  S  1  Z   -0.000005   0.000249   0.000000   0.001360   0.000000
   18  S  1 XX    0.000009   0.000149   0.000000   0.000027   0.000000
   19  S  1 YY   -0.000011  -0.000215   0.000000  -0.000477   0.000000
   20  S  1 ZZ    0.000002   0.000066   0.000000   0.000450   0.000000
   21  S  1 XY   -0.000000  -0.000000   0.000000  -0.000000   0.000000
   22  S  1 XZ   -0.000000  -0.000000   0.000722  -0.000000   0.000000
   23  S  1 YZ   -0.000000  -0.000000   0.000000  -0.000000   0.000214
   24  S  1 XX    0.000013  -0.000190   0.000000   0.000121   0.000000
   25  S  1 YY   -0.000034   0.000408  -0.000000   0.000711   0.000000
   26  S  1 ZZ    0.000022  -0.000219   0.000000  -0.000832   0.000000
   27  S  1 XY   -0.000000  -0.000000   0.000000  -0.000000   0.000000
   28  S  1 XZ   -0.000000  -0.000000  -0.002172   0.000000   0.000000
   29  S  1 YZ   -0.000000  -0.000000   0.000000  -0.000000  -0.000144
   30  S  1 XXX  -0.000000  -0.000000   0.000115  -0.000000   0.000000
   31  S  1 YYY  -0.000000  -0.000000   0.000000  -0.000000  -0.000170
   32  S  1 ZZZ  -0.000002  -0.000058   0.000000  -0.000113   0.000000
   33  S  1 XXY  -0.000000  -0.000000   0.000000  -0.000000   0.000149
   34  S  1 XXZ   0.000016   0.000064   0.000000   0.000235   0.000000
   35  S  1 YYX  -0.000000   0.000000   0.000090  -0.000000   0.000000
   36  S  1 YYZ  -0.000014   0.000014  -0.000000  -0.000083   0.000000
   37  S  1 ZZX  -0.000000  -0.000000  -0.000245  -0.000000   0.000000
   38  S  1 ZZY  -0.000000  -0.000000   0.000000  -0.000000   0.000079
   39  S  1 XYZ  -0.000000  -0.000000   0.000000  -0.000000   0.000000
   40  S  1 XX   -0.000001   0.000417   0.000000  -0.000495   0.000000
   41  S  1 YY    0.000002  -0.000523   0.000000  -0.000239   0.000000
   42  S  1 ZZ   -0.000000   0.000106   0.000000   0.000735   0.000000
   43  S  1 XY   -0.000000  -0.000000   0.000000  -0.000000   0.000000
   44  S  1 XZ   -0.000000  -0.000000   0.000345  -0.000000   0.000000
   45  S  1 YZ   -0.000000  -0.000000   0.000000  -0.000000   0.000637
   46  H  2  S    0.000013  -0.000198  -0.000347   0.000705   0.000000
   47  H  2  S   -0.000062   0.000138  -0.003185   0.002267   0.000000
   48  H  2  S    0.000012  -0.000394   0.000411   0.000026   0.000000
   49  H  2  X   -0.000001  -0.000030   0.000103  -0.000064   0.000000
   50  H  2  Y   -0.000000  -0.000000   0.000000  -0.000000   0.000027
   51  H  2  Z    0.000001   0.000038  -0.000082   0.000082   0.000000
   52  H  2  X   -0.000033   0.000197  -0.000836   0.000931   0.000000
   53  H  2  Y   -0.000000  -0.000000   0.000000  -0.000000   0.000127
   54  H  2  Z    0.000024  -0.000115   0.001169  -0.000313   0.000000
   55  H  2 XX   -0.000001   0.000009   0.000070   0.000012   0.000000
   56  H  2 YY   -0.000000   0.000036  -0.000108   0.000064   0.000000
   57  H  2 ZZ    0.000001  -0.000045   0.000039  -0.000075   0.000000
   58  H  2 XY   -0.000000  -0.000000   0.000000  -0.000000  -0.000035
   59  H  2 XZ   -0.000003   0.000069  -0.000103   0.000125   0.000000
   60  H  2 YZ   -0.000000  -0.000000   0.000000  -0.000000   0.000040
   61  H  3  S    0.000013  -0.000198   0.000347   0.000705   0.000000
   62  H  3  S   -0.000062   0.000138   0.003185   0.002267   0.000000
   63  H  3  S    0.000012  -0.000394  -0.000411   0.000026   0.000000
   64  H  3  X    0.000001   0.000030   0.000103   0.000064   0.000000
   65  H  3  Y   -0.000000  -0.000000   0.000000  -0.000000   0.000027
   66  H  3  Z    0.000001   0.000038   0.000082   0.000082   0.000000
   67  H  3  X    0.000033  -0.000197  -0.000836  -0.000931   0.000000
   68  H  3  Y   -0.000000  -0.000000   0.000000  -0.000000   0.000127
   69  H  3  Z    0.000024  -0.000115  -0.001169  -0.000313   0.000000
   70  H  3 XX   -0.000001   0.000009  -0.000070   0.000012   0.000000
   71  H  3 YY   -0.000000   0.000036   0.000108   0.000064   0.000000
   72  H  3 ZZ    0.000001  -0.000045  -0.000039  -0.000075   0.000000
   73  H  3 XY   -0.000000  -0.000000   0.000000  -0.000000   0.000035
   74  H  3 XZ    0.000003  -0.000069  -0.000103  -0.000125   0.000000
   75  H  3 YZ   -0.000000  -0.000000   0.000000  -0.000000   0.000040

                      6          7          8          9         10
                    0.0000     0.0000     0.0000     0.0000     0.0000
                     A          A          A          A          A   
    1  S  1  S    0.000863   0.000000  -0.002471   0.000000   0.009357
    2  S  1  S    0.006353   0.000000  -0.025331   0.000000   0.079087
    3  S  1  S    0.566409   0.000000  -0.296470   0.000000   0.366435
    4  S  1  S    0.071410  -0.000000  -0.046015   0.000000   0.044299
    5  S  1  S    0.226347   0.000000  -0.238883   0.000000   0.402760
    6  S  1  X   -0.000000  -0.025739  -0.000000   0.000000   0.000000
    7  S  1  Y    0.000000   0.000000   0.000000   0.009139   0.000000
    8  S  1  Z   -0.026403   0.000000  -0.013143   0.000000   0.081821
    9  S  1  X   -0.000000   0.386843  -0.000000   0.000000   0.000000
   10  S  1  Y    0.000000   0.000000   0.000000   0.621584   0.000000
   11  S  1  Z    0.037367   0.000000   0.467081   0.000000   0.598606
   12  S  1  X    0.000000   0.163787   0.000000   0.000000  -0.000000
   13  S  1  Y    0.000000   0.000000   0.000000   0.238987   0.000000
   14  S  1  Z    0.025346  -0.000000   0.189593   0.000000   0.208279
   15  S  1  X   -0.000000   0.100479  -0.000000   0.000000   0.000000
   16  S  1  Y    0.000000   0.000000   0.000000   0.288255   0.000000
   17  S  1  Z    0.004335   0.000000   0.153589   0.000000   0.200625
   18  S  1 XX    0.012915   0.000000   0.010276   0.000000  -0.083369
   19  S  1 YY   -0.027018  -0.000000  -0.030171   0.000000   0.250344
   20  S  1 ZZ    0.014102   0.000000   0.019895   0.000000  -0.166975
   21  S  1 XY    0.000000   0.000000   0.000000   0.000000   0.000000
   22  S  1 XZ   -0.000000   0.069510  -0.000000   0.000000   0.000000
   23  S  1 YZ    0.000000   0.000000   0.000000   0.011818   0.000000
   24  S  1 XX    0.006567   0.000000   0.005676   0.000000  -0.084452
   25  S  1 YY   -0.016918  -0.000000  -0.031129   0.000000   0.244290
   26  S  1 ZZ    0.010351   0.000000   0.025453   0.000000  -0.159838
   27  S  1 XY    0.000000   0.000000   0.000000  -0.000000   0.000000
   28  S  1 XZ   -0.000000   0.057733  -0.000000   0.000000   0.000000
   29  S  1 YZ    0.000000   0.000000   0.000000   0.026045   0.000000
   30  S  1 XXX   0.000000  -0.000351   0.000000   0.000000  -0.000000
   31  S  1 YYY   0.000000   0.000000   0.000000  -0.007257   0.000000
   32  S  1 ZZZ  -0.001819  -0.000000   0.000587   0.000000  -0.002729
   33  S  1 XXY   0.000000   0.000000   0.000000   0.006381   0.000000
   34  S  1 XXZ   0.009197   0.000000   0.012338   0.000000  -0.035154
   35  S  1 YYX   0.000000  -0.014236   0.000000   0.000000  -0.000000
   36  S  1 YYZ  -0.006757  -0.000000  -0.013125   0.000000   0.038816
   37  S  1 ZZX  -0.000000   0.014707  -0.000000   0.000000   0.000000
   38  S  1 ZZY   0.000000   0.000000   0.000000   0.003356   0.000000
   39  S  1 XYZ   0.000000   0.000000   0.000000   0.000000   0.000000
   40  S  1 XX    0.001972  -0.000000   0.002048   0.000000  -0.010108
   41  S  1 YY   -0.003923   0.000000  -0.005804   0.000000   0.027342
   42  S  1 ZZ    0.001951   0.000000   0.003757   0.000000  -0.017234
   43  S  1 XY    0.000000   0.000000   0.000000  -0.000000   0.000000
   44  S  1 XZ    0.000000   0.013003   0.000000   0.000000  -0.000000
   45  S  1 YZ    0.000000   0.000000   0.000000   0.002578   0.000000
   46  H  2  S    0.093536  -0.148845   0.099254   0.000000  -0.215614
   47  H  2  S    0.137843  -0.248381   0.180538   0.000000  -0.468286
   48  H  2  S    0.003012  -0.043016   0.038744   0.000000  -0.055929
   49  H  2  X    0.008893  -0.007984   0.007388   0.000000  -0.018386
   50  H  2  Y    0.000000   0.000000   0.000000   0.005423   0.000000
   51  H  2  Z   -0.007707   0.010786  -0.002961   0.000000   0.016245
   52  H  2  X    0.019976  -0.015160   0.019611   0.000000  -0.072922
   53  H  2  Y    0.000000   0.000000   0.000000   0.023300   0.000000
   54  H  2  Z   -0.016008   0.022960   0.000059   0.000000   0.049455
   55  H  2 XX    0.001821  -0.000152   0.002862   0.000000  -0.006992
   56  H  2 YY   -0.002385   0.002616  -0.001843   0.000000   0.006596
   57  H  2 ZZ    0.000564  -0.002464  -0.001019   0.000000   0.000395
   58  H  2 XY    0.000000   0.000000   0.000000   0.002260   0.000000
   59  H  2 XZ   -0.003886   0.003735  -0.001920   0.000000   0.010062
   60  H  2 YZ    0.000000   0.000000   0.000000  -0.002131   0.000000
   61  H  3  S    0.093536   0.148845   0.099254   0.000000  -0.215614
   62  H  3  S    0.137843   0.248381   0.180538   0.000000  -0.468286
   63  H  3  S    0.003012   0.043016   0.038744   0.000000  -0.055929
   64  H  3  X   -0.008893  -0.007984  -0.007388   0.000000   0.018386
   65  H  3  Y    0.000000   0.000000   0.000000   0.005423   0.000000
   66  H  3  Z   -0.007707  -0.010786  -0.002961   0.000000   0.016245
   67  H  3  X   -0.019976  -0.015160  -0.019611   0.000000   0.072922
   68  H  3  Y    0.000000   0.000000   0.000000   0.023300   0.000000
   69  H  3  Z   -0.016008  -0.022960   0.000059   0.000000   0.049455
   70  H  3 XX    0.001821   0.000152   0.002862   0.000000  -0.006992
   71  H  3 YY   -0.002385  -0.002616  -0.001843   0.000000   0.006596
   72  H  3 ZZ    0.000564   0.002464  -0.001019   0.000000   0.000395
   73  H  3 XY    0.000000   0.000000   0.000000  -0.002260   0.000000
   74  H  3 XZ    0.003886   0.003735   0.001920   0.000000  -0.010062
   75  H  3 YZ    0.000000   0.000000   0.000000  -0.002131   0.000000

                     11         12         13         14         15
                    0.0000    -0.0466     0.0368     0.1279     0.1537
                     A          A          A          A          A   
    1  S  1  S   -0.000000   0.001481   0.000000   0.001637   0.016548
    2  S  1  S   -0.000000   0.017260  -0.000000   0.014465   0.113184
    3  S  1  S   -0.000000   0.199914  -0.000000   0.087044   0.273599
    4  S  1  S    0.000000   0.001631   0.000000   0.007622  -0.018136
    5  S  1  S    0.000000   1.444450  -0.000000   0.163339   0.595434
    6  S  1  X    0.097135  -0.000000   0.099557  -0.000000  -0.000000
    7  S  1  Y   -0.000000   0.000000   0.000000  -0.000000   0.000000
    8  S  1  Z   -0.000000   0.040031  -0.000000  -0.126531  -0.227733
    9  S  1  X    0.735395  -0.000000   0.405578   0.000000  -0.000000
   10  S  1  Y   -0.000000   0.000000   0.000000  -0.000000   0.000000
   11  S  1  Z   -0.000000   0.175489  -0.000000  -0.395063  -0.788347
   12  S  1  X    0.246282   0.000000   0.054210  -0.000000   0.000000
   13  S  1  Y   -0.000000   0.000000   0.000000  -0.000000   0.000000
   14  S  1  Z    0.000000   0.026244   0.000000  -0.016155  -0.056654
   15  S  1  X    0.168277  -0.000000   0.306742  -0.000000  -0.000000
   16  S  1  Y   -0.000000   0.000000   0.000000  -0.000000   0.000000
   17  S  1  Z    0.000000   0.710177  -0.000000   0.596732   1.736479
   18  S  1 XX   -0.000000   0.024135   0.000000  -0.127962   0.057870
   19  S  1 YY    0.000000  -0.058199   0.000000   0.010192   0.019726
   20  S  1 ZZ    0.000000   0.034064   0.000000   0.117770  -0.077596
   21  S  1 XY   -0.000000   0.000000   0.000000  -0.000000   0.000000
   22  S  1 XZ   -0.172389   0.000000   0.069627  -0.000000   0.000000
   23  S  1 YZ   -0.000000   0.000000   0.000000  -0.000000   0.000000
   24  S  1 XX    0.000000   0.111333  -0.000000  -0.486864   0.212756
   25  S  1 YY    0.000000  -0.286389   0.000000  -0.037980  -0.132437
   26  S  1 ZZ   -0.000000   0.175056  -0.000000   0.524844  -0.080319
   27  S  1 XY   -0.000000   0.000000   0.000000  -0.000000   0.000000
   28  S  1 XZ   -0.094529  -0.000000   0.185647  -0.000000  -0.000000
   29  S  1 YZ   -0.000000   0.000000   0.000000  -0.000000   0.000000
   30  S  1 XXX   0.001196   0.000000  -0.002096  -0.000000   0.000000
   31  S  1 YYY  -0.000000   0.000000   0.000000  -0.000000   0.000000
   32  S  1 ZZZ  -0.000000  -0.001616   0.000000   0.005070   0.003236
   33  S  1 XXY  -0.000000   0.000000   0.000000  -0.000000   0.000000
   34  S  1 XXZ   0.000000   0.026686  -0.000000  -0.004244   0.018703
   35  S  1 YYX   0.020163   0.000000  -0.005528  -0.000000   0.000000
   36  S  1 YYZ   0.000000  -0.024517   0.000000  -0.002558  -0.023045
   37  S  1 ZZX  -0.021767  -0.000000   0.008340  -0.000000  -0.000000
   38  S  1 ZZY  -0.000000   0.000000   0.000000  -0.000000   0.000000
   39  S  1 XYZ  -0.000000   0.000000   0.000000  -0.000000   0.000000
   40  S  1 XX   -0.000000   0.006527   0.000000  -0.042775   0.017076
   41  S  1 YY    0.000000  -0.017244   0.000000   0.000099   0.001059
   42  S  1 ZZ   -0.000000   0.010717   0.000000   0.042677  -0.018134
   43  S  1 XY   -0.000000   0.000000   0.000000  -0.000000   0.000000
   44  S  1 XZ   -0.018995   0.000000   0.015738  -0.000000   0.000000
   45  S  1 YZ   -0.000000   0.000000   0.000000  -0.000000   0.000000
   46  H  2  S    0.216852   0.015372  -0.014936  -0.018514   0.019951
   47  H  2  S    0.445621   0.138607  -0.379714  -0.158116  -0.296635
   48  H  2  S    0.013551  -1.383442   1.663154  -0.071593  -0.413018
   49  H  2  X    0.021120   0.015465  -0.016634  -0.006118   0.011611
   50  H  2  Y   -0.000000   0.000000   0.000000  -0.000000   0.000000
   51  H  2  Z   -0.013923  -0.012774   0.012913  -0.004977   0.005449
   52  H  2  X    0.079633  -0.090210   0.051195   0.139886  -0.190158
   53  H  2  Y   -0.000000   0.000000   0.000000  -0.000000   0.000000
   54  H  2  Z   -0.056315   0.070651  -0.046686   0.138909  -0.033667
   55  H  2 XX    0.007561  -0.002186   0.002664  -0.001296  -0.005560
   56  H  2 YY   -0.008249   0.003049  -0.004029  -0.002064   0.002624
   57  H  2 ZZ    0.000689  -0.000863   0.001365   0.003360   0.002936
   58  H  2 XY   -0.000000   0.000000   0.000000  -0.000000   0.000000
   59  H  2 XZ   -0.010155   0.005598  -0.005191  -0.001575  -0.003239
   60  H  2 YZ   -0.000000   0.000000   0.000000  -0.000000   0.000000
   61  H  3  S   -0.216852   0.015372   0.014936  -0.018514   0.019951
   62  H  3  S   -0.445621   0.138607   0.379714  -0.158116  -0.296635
   63  H  3  S   -0.013551  -1.383442  -1.663154  -0.071593  -0.413018
   64  H  3  X    0.021120  -0.015465  -0.016634   0.006118  -0.011611
   65  H  3  Y   -0.000000   0.000000   0.000000  -0.000000   0.000000
   66  H  3  Z    0.013923  -0.012774  -0.012913  -0.004977   0.005449
   67  H  3  X    0.079633   0.090210   0.051195  -0.139886   0.190158
   68  H  3  Y   -0.000000   0.000000   0.000000  -0.000000   0.000000
   69  H  3  Z    0.056315   0.070651   0.046686   0.138909  -0.033667
   70  H  3 XX   -0.007561  -0.002186  -0.002664  -0.001296  -0.005560
   71  H  3 YY    0.008249   0.003049   0.004029  -0.002064   0.002624
   72  H  3 ZZ   -0.000689  -0.000863  -0.001365   0.003360   0.002936
   73  H  3 XY   -0.000000   0.000000   0.000000  -0.000000   0.000000
   74  H  3 XZ   -0.010155  -0.005598  -0.005191   0.001575   0.003239
   75  H  3 YZ   -0.000000   0.000000   0.000000  -0.000000   0.000000

                     16         17         18         19         20
                    0.1702     0.1754     0.1847     0.2027     0.3507
                     A          A          A          A          A   
    1  S  1  S    0.000000   0.000000  -0.000000   0.000000  -0.100854
    2  S  1  S    0.000000   0.000000  -0.000000   0.000000  -0.705417
    3  S  1  S    0.000000   0.000000  -0.000000   0.000000  -1.378251
    4  S  1  S    0.000000   0.000000  -0.000000   0.000000  -0.320773
    5  S  1  S    0.000000   0.000000  -0.000000  -0.000000   4.716714
    6  S  1  X    0.000000   0.000000  -0.000000  -0.099499  -0.000000
    7  S  1  Y   -0.349154   0.000000  -0.000420   0.000000  -0.000000
    8  S  1  Z    0.000000   0.000000  -0.000000  -0.000000   0.355199
    9  S  1  X    0.000000   0.000000  -0.000000  -0.485965  -0.000000
   10  S  1  Y   -1.131134   0.000000  -0.039611   0.000000  -0.000000
   11  S  1  Z    0.000000   0.000000  -0.000000  -0.000000   0.617610
   12  S  1  X    0.000000   0.000000  -0.000000  -0.099486   0.000000
   13  S  1  Y   -0.052398   0.000000  -0.018692   0.000000  -0.000000
   14  S  1  Z    0.000000   0.000000  -0.000000   0.000000  -0.188514
   15  S  1  X    0.000000   0.000000  -0.000000   2.777457   0.000000
   16  S  1  Y    1.400785   0.000000  -0.148665   0.000000  -0.000000
   17  S  1  Z    0.000000   0.000000  -0.000000  -0.000000   1.396425
   18  S  1 XX    0.000000   0.000000  -0.000000  -0.000000  -0.021728
   19  S  1 YY    0.000000   0.000000  -0.000000   0.000000   0.043932
   20  S  1 ZZ    0.000000   0.000000  -0.000000  -0.000000  -0.022204
   21  S  1 XY    0.000000   0.159418  -0.000000   0.000000  -0.000000
   22  S  1 XZ    0.000000   0.000000  -0.000000   0.006861  -0.000000
   23  S  1 YZ   -0.009644   0.000000   0.160888   0.000000  -0.000000
   24  S  1 XX    0.000000   0.000000  -0.000000  -0.000000  -0.032505
   25  S  1 YY    0.000000   0.000000  -0.000000   0.000000  -0.089014
   26  S  1 ZZ    0.000000   0.000000  -0.000000  -0.000000   0.121519
   27  S  1 XY    0.000000   0.734610  -0.000000   0.000000  -0.000000
   28  S  1 XZ    0.000000   0.000000  -0.000000   0.682815  -0.000000
   29  S  1 YZ    0.062177   0.000000   0.749734   0.000000  -0.000000
   30  S  1 XXX   0.000000   0.000000  -0.000000  -0.016718   0.000000
   31  S  1 YYY  -0.001921   0.000000  -0.003886   0.000000  -0.000000
   32  S  1 ZZZ   0.000000   0.000000  -0.000000   0.000000  -0.041272
   33  S  1 XXY   0.000266   0.000000  -0.006984   0.000000  -0.000000
   34  S  1 XXZ   0.000000   0.000000  -0.000000  -0.000000   0.170006
   35  S  1 YYX   0.000000   0.000000  -0.000000  -0.075175   0.000000
   36  S  1 YYZ   0.000000   0.000000  -0.000000   0.000000  -0.114634
   37  S  1 ZZX   0.000000   0.000000  -0.000000   0.097606  -0.000000
   38  S  1 ZZY   0.002310   0.000000   0.012198   0.000000  -0.000000
   39  S  1 XYZ   0.000000   0.006447  -0.000000   0.000000  -0.000000
   40  S  1 XX    0.000000   0.000000  -0.000000   0.000000  -0.018035
   41  S  1 YY    0.000000   0.000000  -0.000000   0.000000   0.028887
   42  S  1 ZZ    0.000000   0.000000  -0.000000   0.000000  -0.010852
   43  S  1 XY    0.000000   0.057482  -0.000000   0.000000  -0.000000
   44  S  1 XZ    0.000000   0.000000  -0.000000   0.006124  -0.000000
   45  S  1 YZ    0.001757   0.000000   0.058225   0.000000  -0.000000
   46  H  2  S    0.000000   0.000000  -0.000000  -0.040301   0.099656
   47  H  2  S    0.000000   0.000000  -0.000000   0.463219  -0.513662
   48  H  2  S    0.000000   0.000000  -0.000000   1.887098  -1.638691
   49  H  2  X    0.000000   0.000000  -0.000000  -0.001131   0.013389
   50  H  2  Y    0.005158   0.008123  -0.008831   0.000000  -0.000000
   51  H  2  Z    0.000000   0.000000  -0.000000   0.011709  -0.004678
   52  H  2  X    0.000000   0.000000  -0.000000   0.216008  -0.557633
   53  H  2  Y   -0.032330  -0.178554   0.167547   0.000000  -0.000000
   54  H  2  Z    0.000000   0.000000  -0.000000  -0.278553   0.425220
   55  H  2 XX    0.000000   0.000000  -0.000000   0.004851  -0.024295
   56  H  2 YY    0.000000   0.000000  -0.000000  -0.006833   0.034876
   57  H  2 ZZ    0.000000   0.000000  -0.000000   0.001982  -0.010581
   58  H  2 XY   -0.001151   0.005047  -0.000372   0.000000  -0.000000
   59  H  2 XZ    0.000000   0.000000  -0.000000  -0.020116   0.043195
   60  H  2 YZ    0.000512  -0.000620   0.005155   0.000000  -0.000000
   61  H  3  S    0.000000   0.000000  -0.000000   0.040301   0.099656
   62  H  3  S    0.000000   0.000000  -0.000000  -0.463219  -0.513662
   63  H  3  S    0.000000   0.000000  -0.000000  -1.887098  -1.638691
   64  H  3  X    0.000000   0.000000  -0.000000  -0.001131  -0.013389
   65  H  3  Y    0.005158  -0.008123  -0.008831   0.000000  -0.000000
   66  H  3  Z    0.000000   0.000000  -0.000000  -0.011709  -0.004678
   67  H  3  X    0.000000   0.000000  -0.000000   0.216008   0.557633
   68  H  3  Y   -0.032330   0.178554   0.167547   0.000000  -0.000000
   69  H  3  Z    0.000000   0.000000  -0.000000   0.278553   0.425220
   70  H  3 XX    0.000000   0.000000  -0.000000  -0.004851  -0.024295
   71  H  3 YY    0.000000   0.000000  -0.000000   0.006833   0.034876
   72  H  3 ZZ    0.000000   0.000000  -0.000000  -0.001982  -0.010581
   73  H  3 XY    0.001151   0.005047   0.000372   0.000000  -0.000000
   74  H  3 XZ    0.000000   0.000000  -0.000000  -0.020116  -0.043195
   75  H  3 YZ    0.000512   0.000620   0.005155   0.000000  -0.000000

                     21         22         23         24         25
                    0.4978     0.5452     0.7085     0.7315     0.7801
                     A          A          A          A          A   
    1  S  1  S   -0.084839   0.000000  -0.000000   0.000000   0.000000
    2  S  1  S   -0.587470   0.000000  -0.000000   0.000000   0.000000
    3  S  1  S   -0.989845   0.000000  -0.000000   0.000000   0.000000
    4  S  1  S   -0.287368   0.000000  -0.000000  -0.000000   0.000000
    5  S  1  S    4.002138  -0.000000  -0.000000  -0.000000   0.000000
    6  S  1  X   -0.000000  -0.173712  -0.000000  -0.017660   0.000000
    7  S  1  Y    0.000000  -0.000000  -0.000000   0.000000  -0.081404
    8  S  1  Z    0.339984  -0.000000  -0.000000   0.000000   0.000000
    9  S  1  X   -0.000000  -0.503515  -0.000000  -0.179037   0.000000
   10  S  1  Y    0.000000  -0.000000  -0.000000   0.000000  -0.279839
   11  S  1  Z    0.823094  -0.000000  -0.000000   0.000000   0.000000
   12  S  1  X    0.000000  -0.003578  -0.000000  -0.072182   0.000000
   13  S  1  Y    0.000000  -0.000000  -0.000000   0.000000  -0.030138
   14  S  1  Z   -0.072905   0.000000  -0.000000  -0.000000   0.000000
   15  S  1  X   -0.000000  -0.333918  -0.000000  -0.525404   0.000000
   16  S  1  Y    0.000000  -0.000000  -0.000000   0.000000  -0.495024
   17  S  1  Z    1.421903  -0.000000  -0.000000   0.000000   0.000000
   18  S  1 XX    0.087418  -0.000000  -0.000000  -0.000000   0.000000
   19  S  1 YY   -0.127355   0.000000  -0.000000   0.000000   0.000000
   20  S  1 ZZ    0.039937  -0.000000  -0.000000   0.000000   0.000000
   21  S  1 XY    0.000000  -0.000000   0.091337   0.000000   0.000000
   22  S  1 XZ   -0.000000  -0.150950  -0.000000  -0.103999   0.000000
   23  S  1 YZ    0.000000  -0.000000  -0.000000   0.000000  -0.115205
   24  S  1 XX    0.850377  -0.000000  -0.000000  -0.000000   0.000000
   25  S  1 YY   -1.154375   0.000000  -0.000000  -0.000000   0.000000
   26  S  1 ZZ    0.303998  -0.000000  -0.000000   0.000000   0.000000
   27  S  1 XY    0.000000  -0.000000   0.789162   0.000000   0.000000
   28  S  1 XZ   -0.000000  -1.311451  -0.000000  -0.311724   0.000000
   29  S  1 YZ    0.000000  -0.000000  -0.000000   0.000000  -0.770642
   30  S  1 XXX   0.000000   0.014383  -0.000000   0.054728   0.000000
   31  S  1 YYY   0.000000  -0.000000  -0.000000   0.000000  -0.048548
   32  S  1 ZZZ  -0.033208   0.000000  -0.000000   0.000000   0.000000
   33  S  1 XXY   0.000000  -0.000000  -0.000000   0.000000   0.043842
   34  S  1 XXZ   0.124157  -0.000000  -0.000000   0.000000   0.000000
   35  S  1 YYX   0.000000   0.025153  -0.000000  -0.041341   0.000000
   36  S  1 YYZ  -0.079604   0.000000  -0.000000  -0.000000   0.000000
   37  S  1 ZZX  -0.000000  -0.044450  -0.000000  -0.032084   0.000000
   38  S  1 ZZY   0.000000  -0.000000  -0.000000   0.000000   0.021291
   39  S  1 XYZ   0.000000  -0.000000  -0.024245   0.000000   0.000000
   40  S  1 XX    0.033327  -0.000000  -0.000000   0.000000   0.000000
   41  S  1 YY   -0.043311   0.000000  -0.000000   0.000000   0.000000
   42  S  1 ZZ    0.009984  -0.000000  -0.000000   0.000000   0.000000
   43  S  1 XY    0.000000  -0.000000   0.036009   0.000000   0.000000
   44  S  1 XZ   -0.000000  -0.058624  -0.000000  -0.027168   0.000000
   45  S  1 YZ    0.000000  -0.000000  -0.000000   0.000000  -0.037856
   46  H  2  S   -0.007415  -0.022534  -0.000000   0.017610   0.000000
   47  H  2  S   -1.732375  -1.422956  -0.000000  -0.575401   0.000000
   48  H  2  S   -0.688924   0.497747  -0.000000   0.266211   0.000000
   49  H  2  X   -0.015127  -0.007008  -0.000000  -0.042871   0.000000
   50  H  2  Y    0.000000  -0.000000  -0.064286   0.000000  -0.072225
   51  H  2  Z    0.002531   0.025975  -0.000000  -0.037614   0.000000
   52  H  2  X   -0.157841  -0.154489  -0.000000   0.702842   0.000000
   53  H  2  Y    0.000000  -0.000000   0.908464   0.000000   0.989662
   54  H  2  Z    0.350115  -0.194336  -0.000000   0.511411   0.000000
   55  H  2 XX   -0.007540  -0.006606  -0.000000  -0.008141   0.000000
   56  H  2 YY    0.025725   0.007304  -0.000000   0.011843   0.000000
   57  H  2 ZZ   -0.018185  -0.000699  -0.000000  -0.003702   0.000000
   58  H  2 XY    0.000000  -0.000000   0.009242   0.000000   0.005351
   59  H  2 XZ    0.043725   0.019881  -0.000000  -0.010516   0.000000
   60  H  2 YZ    0.000000  -0.000000  -0.007608   0.000000  -0.006899
   61  H  3  S   -0.007415   0.022534  -0.000000  -0.017610   0.000000
   62  H  3  S   -1.732375   1.422956  -0.000000   0.575401   0.000000
   63  H  3  S   -0.688924  -0.497747  -0.000000  -0.266211   0.000000
   64  H  3  X    0.015127  -0.007008  -0.000000  -0.042871   0.000000
   65  H  3  Y    0.000000  -0.000000   0.064286   0.000000  -0.072225
   66  H  3  Z    0.002531  -0.025975  -0.000000   0.037614   0.000000
   67  H  3  X    0.157841  -0.154489  -0.000000   0.702842   0.000000
   68  H  3  Y    0.000000  -0.000000  -0.908464   0.000000   0.989662
   69  H  3  Z    0.350115   0.194336  -0.000000  -0.511411   0.000000
   70  H  3 XX   -0.007540   0.006606  -0.000000   0.008141   0.000000
   71  H  3 YY    0.025725  -0.007304  -0.000000  -0.011843   0.000000
   72  H  3 ZZ   -0.018185   0.000699  -0.000000   0.003702   0.000000
   73  H  3 XY    0.000000  -0.000000   0.009242   0.000000  -0.005351
   74  H  3 XZ   -0.043725   0.019881  -0.000000  -0.010516   0.000000
   75  H  3 YZ    0.000000  -0.000000   0.007608   0.000000  -0.006899

                     26         27         28         29         30
                    0.7998     1.0604     1.0760     1.3809     1.3814
                     A          A          A          A          A   
    1  S  1  S   -0.030708  -0.000000   0.079536   0.001249  -0.000000
    2  S  1  S   -0.212908  -0.000000   0.547792   0.015567  -0.000000
    3  S  1  S   -0.342404  -0.000000   0.974085   0.052710  -0.000000
    4  S  1  S   -0.099623   0.000000  -0.179291  -0.010978  -0.000000
    5  S  1  S    1.328209  -0.000000   3.782225   0.734671  -0.000000
    6  S  1  X   -0.000000   1.336544   0.000000   0.000000  -0.000000
    7  S  1  Y   -0.000000  -0.000000  -0.000000  -0.000000  -0.000000
    8  S  1  Z    0.148212  -0.000000   0.928165   0.111287  -0.000000
    9  S  1  X   -0.000000   3.075657   0.000000   0.000000  -0.000000
   10  S  1  Y   -0.000000  -0.000000  -0.000000  -0.000000  -0.000000
   11  S  1  Z    0.448036  -0.000000   2.203514   0.340944  -0.000000
   12  S  1  X    0.000000  -0.200734  -0.000000  -0.000000  -0.000000
   13  S  1  Y   -0.000000  -0.000000  -0.000000  -0.000000  -0.000000
   14  S  1  Z    0.018809   0.000000  -0.050502   0.068485  -0.000000
   15  S  1  X   -0.000000   1.715705   0.000000   0.000000  -0.000000
   16  S  1  Y   -0.000000  -0.000000  -0.000000  -0.000000  -0.000000
   17  S  1  Z    0.949754  -0.000000   1.070855   0.316162  -0.000000
   18  S  1 XX   -0.093842   0.000000  -0.196628   0.958305  -0.000000
   19  S  1 YY   -0.098143  -0.000000   0.238927  -0.101979  -0.000000
   20  S  1 ZZ    0.191985   0.000000  -0.042298  -0.856326  -0.000000
   21  S  1 XY   -0.000000  -0.000000  -0.000000  -0.000000   1.110695
   22  S  1 XZ    0.000000  -0.243828  -0.000000  -0.000000  -0.000000
   23  S  1 YZ   -0.000000  -0.000000  -0.000000  -0.000000  -0.000000
   24  S  1 XX   -0.800481  -0.000000   0.673137  -0.876095  -0.000000
   25  S  1 YY   -0.318420   0.000000  -1.464557  -0.160670  -0.000000
   26  S  1 ZZ    1.118901  -0.000000   0.791420   1.036765  -0.000000
   27  S  1 XY   -0.000000  -0.000000  -0.000000  -0.000000  -0.950816
   28  S  1 XZ   -0.000000   3.036316   0.000000   0.000000  -0.000000
   29  S  1 YZ   -0.000000  -0.000000  -0.000000  -0.000000  -0.000000
   30  S  1 XXX   0.000000  -0.096185  -0.000000  -0.000000  -0.000000
   31  S  1 YYY  -0.000000  -0.000000  -0.000000  -0.000000  -0.000000
   32  S  1 ZZZ  -0.030152   0.000000  -0.039168  -0.282151  -0.000000
   33  S  1 XXY  -0.000000  -0.000000  -0.000000  -0.000000  -0.000000
   34  S  1 XXZ   0.018029  -0.000000   0.058056   0.160210  -0.000000
   35  S  1 YYX   0.000000  -0.074353  -0.000000   0.000000  -0.000000
   36  S  1 YYZ   0.022425   0.000000  -0.005507   0.218336  -0.000000
   37  S  1 ZZX  -0.000000   0.203399   0.000000  -0.000000  -0.000000
   38  S  1 ZZY  -0.000000  -0.000000  -0.000000  -0.000000  -0.000000
   39  S  1 XYZ  -0.000000  -0.000000  -0.000000  -0.000000   0.169458
   40  S  1 XX   -0.035194   0.000000  -0.026488   0.113332  -0.000000
   41  S  1 YY   -0.020133  -0.000000   0.025628  -0.014689  -0.000000
   42  S  1 ZZ    0.055327  -0.000000   0.000860  -0.098643  -0.000000
   43  S  1 XY   -0.000000  -0.000000  -0.000000  -0.000000   0.135277
   44  S  1 XZ    0.000000  -0.033963  -0.000000  -0.000000  -0.000000
   45  S  1 YZ   -0.000000  -0.000000  -0.000000  -0.000000  -0.000000
   46  H  2  S    0.022153   0.065252  -0.114338   0.000372  -0.000000
   47  H  2  S   -0.734600   2.710223  -1.744688  -0.352257  -0.000000
   48  H  2  S   -0.167479   1.486889  -1.142629  -0.181748  -0.000000
   49  H  2  X    0.059377  -0.014066   0.065974  -0.004161  -0.000000
   50  H  2  Y   -0.000000  -0.000000  -0.000000  -0.000000  -0.036663
   51  H  2  Z    0.058875   0.038122  -0.035707  -0.042798  -0.000000
   52  H  2  X   -0.760168   1.400781  -1.414455  -0.359087  -0.000000
   53  H  2  Y   -0.000000  -0.000000  -0.000000  -0.000000  -0.087813
   54  H  2  Z   -0.726163  -1.660404   1.116861   0.020920  -0.000000
   55  H  2 XX   -0.034047   0.030164  -0.023454  -0.088949  -0.000000
   56  H  2 YY    0.021877  -0.050478   0.040572   0.025555  -0.000000
   57  H  2 ZZ    0.012170   0.020314  -0.017118   0.063394  -0.000000
   58  H  2 XY   -0.000000  -0.000000  -0.000000  -0.000000  -0.047812
   59  H  2 XZ   -0.003439  -0.093329   0.044043  -0.013708  -0.000000
   60  H  2 YZ   -0.000000  -0.000000  -0.000000  -0.000000   0.044067
   61  H  3  S    0.022153  -0.065252  -0.114338   0.000372  -0.000000
   62  H  3  S   -0.734600  -2.710223  -1.744688  -0.352257  -0.000000
   63  H  3  S   -0.167479  -1.486889  -1.142629  -0.181748  -0.000000
   64  H  3  X   -0.059377  -0.014066  -0.065974   0.004161  -0.000000
   65  H  3  Y   -0.000000  -0.000000  -0.000000  -0.000000   0.036663
   66  H  3  Z    0.058875  -0.038122  -0.035707  -0.042798  -0.000000
   67  H  3  X    0.760168   1.400781   1.414455   0.359087  -0.000000
   68  H  3  Y   -0.000000  -0.000000  -0.000000  -0.000000   0.087813
   69  H  3  Z   -0.726163   1.660404   1.116861   0.020920  -0.000000
   70  H  3 XX   -0.034047  -0.030164  -0.023454  -0.088949  -0.000000
   71  H  3 YY    0.021877   0.050478   0.040572   0.025555  -0.000000
   72  H  3 ZZ    0.012170  -0.020314  -0.017118   0.063394  -0.000000
   73  H  3 XY   -0.000000  -0.000000  -0.000000  -0.000000  -0.047812
   74  H  3 XZ    0.003439  -0.093329  -0.044043   0.013708  -0.000000
   75  H  3 YZ   -0.000000  -0.000000  -0.000000  -0.000000  -0.044067

                     31         32         33         34         35
                    1.3953     1.4576     1.5443     1.5463     1.6867
                     A          A          A          A          A   
    1  S  1  S   -0.000000  -0.021164  -0.000000  -0.000000  -0.000000
    2  S  1  S   -0.000000  -0.188864  -0.000000  -0.000000  -0.000000
    3  S  1  S   -0.000000  -0.470761  -0.000000  -0.000000  -0.000000
    4  S  1  S   -0.000000  -0.149079   0.000000  -0.000000   0.000000
    5  S  1  S   -0.000000  -0.817234  -0.000000  -0.000000  -0.000000
    6  S  1  X   -0.000000  -0.000000   0.025509  -0.000000  -0.054572
    7  S  1  Y   -0.034565  -0.000000  -0.000000   0.001045   0.000000
    8  S  1  Z   -0.000000  -0.224609  -0.000000  -0.000000  -0.000000
    9  S  1  X   -0.000000  -0.000000   0.364774  -0.000000   0.250492
   10  S  1  Y   -0.096190  -0.000000  -0.000000  -0.000236   0.000000
   11  S  1  Z   -0.000000  -0.666283  -0.000000  -0.000000  -0.000000
   12  S  1  X   -0.000000   0.000000   0.387775  -0.000000   0.421619
   13  S  1  Y    0.005354  -0.000000  -0.000000  -0.003061   0.000000
[...]
      154   -0.041786    0.041786  2-+++-
       63    0.040987    0.040987  220+20
       68    0.040693    0.040693  2-++-+
        8    0.039429   -0.039429  2-2+0+
        5   -0.037878   -0.037878  -22++0
       82   -0.037727    0.037727  2+-+-+
       79    0.034120    0.034120  202+20
       36   -0.028035   -0.028035  2+2-0+
       91   -0.025071   -0.025071  +22+-0
       95    0.024951    0.024951  022+20
       61    0.023084    0.023084  22++-0
       17   -0.020620    0.020620  22+-+0

 State #    2  Energy =    -398.531210867

      Det      Coef        Coefp    Occupancy (Ignoring core)
      ---      ----        ----    --------- --------- -----
       16    0.981728    0.981728  22+200
      203   -0.076196    0.076196  20+202
       62   -0.067827   -0.067827  22+020
       53   -0.065774    0.065774  +-220+
       18    0.048905   -0.048905  2202+0
        2   -0.046541    0.046541  2220+0
       34   -0.044715    0.044715  2022+0
       48    0.044601    0.044601  +2-2+0
       39    0.041416    0.041416  -+220+
      112    0.040355    0.040355  2+02-+
      198   -0.037058    0.037058  2+02+-
      196    0.035311    0.035311  2++20-
      109   -0.034081    0.034081  20+220
      219   -0.027246    0.027246  02+202
       20   -0.025564    0.025564  -2+2+0
      226    0.024358    0.024358  ++220-
      125   -0.022996    0.022996  02+220
      200    0.021796    0.021796  -++2+-
       23   -0.020039   -0.020039  2-+20+

 State #    3  Energy =    -398.446477851

      Det      Coef        Coefp    Occupancy (Ignoring core)
      ---      ----        ----    --------- --------- -----
       31   -0.973868    0.973868  2+2200
       52    0.087299    0.087299  +2-20+
      202    0.079219   -0.079219  2+0202
       38   -0.070814    0.070814  20220+
       77    0.070295   -0.070295  2+2020
       33   -0.065782    0.065782  2+-2+0
        6    0.060160   -0.060160  22200+
       19    0.059364    0.059364  2-+2+0
       24   -0.048232    0.048232  -2+20+
      113   -0.043695   -0.043695  20+2-+
       49   -0.043067    0.043067  +-22+0
      108    0.042510   -0.042510  2+0220
       22   -0.040772    0.040772  22020+
      211   -0.039068    0.039068  +2+20-
      199    0.033801   -0.033801  20+2+-
      234    0.028198    0.028198  0+2202
      136    0.022060    0.022060  ++22-0
      140    0.021736    0.021736  0+2220
       35    0.021006    0.021006  -+22+0

 ---------------------------------------
      - DIABATIC STATES IN CMO -        
 ---------------------------------------

 State #    1  Energy =    -398.642179461

      Det      Coef        Coefp    Occupancy (Ignoring core)
      ---      ----        ----    --------- --------- -----
        1   -0.983273    0.983273  222+00
      157    0.077929    0.077929  220+02
      173    0.072650    0.072650  202+02
       47    0.062949   -0.062949  +22-+0
      168    0.047165    0.047165  2+-++-
      154   -0.041786    0.041786  2-+++-
       63    0.040987    0.040987  220+20
       68    0.040693    0.040693  2-++-+
        8    0.039429   -0.039429  2-2+0+
        5   -0.037878   -0.037878  -22++0
       82   -0.037727    0.037727  2+-+-+
       79    0.034120    0.034120  202+20
       36   -0.028035   -0.028035  2+2-0+
       91   -0.025071   -0.025071  +22+-0
       95    0.024951    0.024951  022+20
       61    0.023084    0.023084  22++-0
       17   -0.020620    0.020620  22+-+0

 State #    2  Energy =    -398.531210867

      Det      Coef        Coefp    Occupancy (Ignoring core)
      ---      ----        ----    --------- --------- -----
       16    0.981728    0.981728  22+200
      203   -0.076196    0.076196  20+202
       62   -0.067827   -0.067827  22+020
       53   -0.065774    0.065774  +-220+
       18    0.048905   -0.048905  2202+0
        2   -0.046541    0.046541  2220+0
       34   -0.044715    0.044715  2022+0
       48    0.044601    0.044601  +2-2+0
       39    0.041416    0.041416  -+220+
      112    0.040355    0.040355  2+02-+
      198   -0.037058    0.037058  2+02+-
      196    0.035311    0.035311  2++20-
      109   -0.034081    0.034081  20+220
      219   -0.027246    0.027246  02+202
       20   -0.025564    0.025564  -2+2+0
      226    0.024358    0.024358  ++220-
      125   -0.022996    0.022996  02+220
      200    0.021796    0.021796  -++2+-
       23   -0.020039   -0.020039  2-+20+

 State #    3  Energy =    -398.446477851

      Det      Coef        Coefp    Occupancy (Ignoring core)
      ---      ----        ----    --------- --------- -----
       31   -0.973868    0.973868  2+2200
       52    0.087299    0.087299  +2-20+
      202    0.079219   -0.079219  2+0202
       38   -0.070814    0.070814  20220+
       77    0.070295   -0.070295  2+2020
       33   -0.065782    0.065782  2+-2+0
        6    0.060160   -0.060160  22200+
       19    0.059364    0.059364  2-+2+0
       24   -0.048232    0.048232  -2+20+
      113   -0.043695   -0.043695  20+2-+
       49   -0.043067    0.043067  +-22+0
      108    0.042510   -0.042510  2+0220
       22   -0.040772    0.040772  22020+
      211   -0.039068    0.039068  +2+20-
      199    0.033801   -0.033801  20+2+-
      234    0.028198    0.028198  0+2202
      136    0.022060    0.022060  ++22-0
      140    0.021736    0.021736  0+2220
       35    0.021006    0.021006  -+22+0

 ---------------------------------------
    -DIABATIC STATES IN PROTOTYPES-     
 ---------------------------------------

     STATE:    1
 Group Ref#    Coefficients
     1    1    0.999009
     2    2    0.000000
     3    3   -0.000000

WEIGHT OF LISTED PROTOTYPES:   99.80%

     STATE:    2
 Group Ref#    Coefficients
     1    1   -0.000000
     2    2    0.998793
     3    3   -0.000000

WEIGHT OF LISTED PROTOTYPES:   99.76%

     STATE:    3
 Group Ref#    Coefficients
     1    1    0.000000
     2    2    0.000000
     3    3    0.999083

WEIGHT OF LISTED PROTOTYPES:   99.82%

 --------------------------------------------------
 IN DIRECT MAX. DIABATIZATION FOR GMC-QDPT

 DIRECT MAXIMIZATION (DM) WITHOUT TRUNCATING ADIABATS
 EXPANSIONS INTO THE REFERENCE CONFIGURATION SPACE
 --------------------------------------------------

 -------------------------------------------
 - DM DIABT PT HAMILTONIAN MATRIX ELEMENTS -
 -------------------------------------------
                                            
 --- DIABATIC ENERGIES (DIAGONAL ELEMENT) ---       HARTREE            EV
 STATE #  1'S GMC-PT-LEVEL DIABATIC ENERGY=    -398.642179461       0.000000000
 STATE #  2'S GMC-PT-LEVEL DIABATIC ENERGY=    -398.531210867       3.019609244
 STATE #  3'S GMC-PT-LEVEL DIABATIC ENERGY=    -398.446477851       5.325312065

 --- DIABATIC COUPLINGS (OFF DIAGONAL ELEMENTS)---  HATREE            EV
 STATE #  1 &  2'S GMC-PT-LEVEL COUPLING  =       0.000000000       0.000000000
 STATE #  1 &  3'S GMC-PT-LEVEL COUPLING  =       0.000000000       0.000000000
 STATE #  2 &  3'S GMC-PT-LEVEL COUPLING  =       0.000000000       0.000000000

 ---------------------------------------
     - ROTATION TO DIABATIC STATES -    
 ---------------------------------------
 ROWS=ADIABATIC, COLUMNS=DIABATIC STATES

             1           2           3

    1    1.0000000   0.0000000   0.0000000
    2    0.0000000   1.0000000   0.0000000
    3    0.0000000   0.0000000   1.0000000

 ---------------------------------------
          - DIABATIC STATES -           
 ---------------------------------------

 State #    1  Energy =    -398.642179461

      Det      Coef        Coefp    Occupancy (Ignoring core)
      ---      ----        ----    --------- --------- -----
        1   -0.983273    0.983273  222+00
      157    0.077929    0.077929  220+02
      173    0.072650    0.072650  202+02
       47    0.062949   -0.062949  +22-+0
      168    0.047165    0.047165  2+-++-
      154   -0.041786    0.041786  2-+++-
       63    0.040987    0.040987  220+20
       68    0.040693    0.040693  2-++-+
        8    0.039429   -0.039429  2-2+0+
        5   -0.037878   -0.037878  -22++0
       82   -0.037727    0.037727  2+-+-+
       79    0.034120    0.034120  202+20
       36   -0.028035   -0.028035  2+2-0+
       91   -0.025071   -0.025071  +22+-0
       95    0.024951    0.024951  022+20
       61    0.023084    0.023084  22++-0
       17   -0.020620    0.020620  22+-+0

 State #    2  Energy =    -398.531210867

      Det      Coef        Coefp    Occupancy (Ignoring core)
      ---      ----        ----    --------- --------- -----
       16    0.981728    0.981728  22+200
      203   -0.076196    0.076196  20+202
       62   -0.067827   -0.067827  22+020
       53   -0.065774    0.065774  +-220+
       18    0.048905   -0.048905  2202+0
        2   -0.046541    0.046541  2220+0
       34   -0.044715    0.044715  2022+0
       48    0.044601    0.044601  +2-2+0
       39    0.041416    0.041416  -+220+
      112    0.040355    0.040355  2+02-+
      198   -0.037058    0.037058  2+02+-
      196    0.035311    0.035311  2++20-
      109   -0.034081    0.034081  20+220
      219   -0.027246    0.027246  02+202
       20   -0.025564    0.025564  -2+2+0
      226    0.024358    0.024358  ++220-
      125   -0.022996    0.022996  02+220
      200    0.021796    0.021796  -++2+-
       23   -0.020039   -0.020039  2-+20+

 State #    3  Energy =    -398.446477851

      Det      Coef        Coefp    Occupancy (Ignoring core)
      ---      ----        ----    --------- --------- -----
       31   -0.973868    0.973868  2+2200
       52    0.087299    0.087299  +2-20+
      202    0.079219   -0.079219  2+0202
       38   -0.070814    0.070814  20220+
       77    0.070295   -0.070295  2+2020
       33   -0.065782    0.065782  2+-2+0
        6    0.060160   -0.060160  22200+
       19    0.059364    0.059364  2-+2+0
       24   -0.048232    0.048232  -2+20+
      113   -0.043695   -0.043695  20+2-+
       49   -0.043067    0.043067  +-22+0
      108    0.042510   -0.042510  2+0220
       22   -0.040772    0.040772  22020+
      211   -0.039068    0.039068  +2+20-
      199    0.033801   -0.033801  20+2+-
      234    0.028198    0.028198  0+2202
      136    0.022060    0.022060  ++22-0
      140    0.021736    0.021736  0+2220
       35    0.021006    0.021006  -+22+0

 ---------------------------------------
      - DIABATIC STATES IN CMO -        
 ---------------------------------------

 State #    1  Energy =    -398.642179461

      Det      Coef        Coefp    Occupancy (Ignoring core)
      ---      ----        ----    --------- --------- -----
        1   -0.983273    0.983273  222+00
      157    0.077929    0.077929  220+02
      173    0.072650    0.072650  202+02
       47    0.062949   -0.062949  +22-+0
      168    0.047165    0.047165  2+-++-
      154   -0.041786    0.041786  2-+++-
       63    0.040987    0.040987  220+20
       68    0.040693    0.040693  2-++-+
        8    0.039429   -0.039429  2-2+0+
        5   -0.037878   -0.037878  -22++0
       82   -0.037727    0.037727  2+-+-+
       79    0.034120    0.034120  202+20
       36   -0.028035   -0.028035  2+2-0+
       91   -0.025071   -0.025071  +22+-0
       95    0.024951    0.024951  022+20
       61    0.023084    0.023084  22++-0
       17   -0.020620    0.020620  22+-+0

 State #    2  Energy =    -398.531210867

      Det      Coef        Coefp    Occupancy (Ignoring core)
      ---      ----        ----    --------- --------- -----
       16    0.981728    0.981728  22+200
      203   -0.076196    0.076196  20+202
       62   -0.067827   -0.067827  22+020
       53   -0.065774    0.065774  +-220+
       18    0.048905   -0.048905  2202+0
        2   -0.046541    0.046541  2220+0
       34   -0.044715    0.044715  2022+0
       48    0.044601    0.044601  +2-2+0
       39    0.041416    0.041416  -+220+
      112    0.040355    0.040355  2+02-+
      198   -0.037058    0.037058  2+02+-
      196    0.035311    0.035311  2++20-
      109   -0.034081    0.034081  20+220
      219   -0.027246    0.027246  02+202
       20   -0.025564    0.025564  -2+2+0
      226    0.024358    0.024358  ++220-
      125   -0.022996    0.022996  02+220
      200    0.021796    0.021796  -++2+-
       23   -0.020039   -0.020039  2-+20+

 State #    3  Energy =    -398.446477851

      Det      Coef        Coefp    Occupancy (Ignoring core)
      ---      ----        ----    --------- --------- -----
       31   -0.973868    0.973868  2+2200
       52    0.087299    0.087299  +2-20+
      202    0.079219   -0.079219  2+0202
       38   -0.070814    0.070814  20220+
       77    0.070295   -0.070295  2+2020
       33   -0.065782    0.065782  2+-2+0
        6    0.060160   -0.060160  22200+
       19    0.059364    0.059364  2-+2+0
       24   -0.048232    0.048232  -2+20+
      113   -0.043695   -0.043695  20+2-+
       49   -0.043067    0.043067  +-22+0
      108    0.042510   -0.042510  2+0220
       22   -0.040772    0.040772  22020+
      211   -0.039068    0.039068  +2+20-
      199    0.033801   -0.033801  20+2+-
      234    0.028198    0.028198  0+2202
      136    0.022060    0.022060  ++22-0
      140    0.021736    0.021736  0+2220
       35    0.021006    0.021006  -+22+0

 ---------------------------------------
    -DIABATIC STATES IN PROTOTYPES-     
 ---------------------------------------

     STATE:    1
 Group Ref#    Coefficients
     1    1    0.999009
     2    2    0.000000
     3    3   -0.000000

WEIGHT OF LISTED PROTOTYPES:   99.80%

     STATE:    2
 Group Ref#    Coefficients
     1    1   -0.000000
     2    2    0.998793
     3    3   -0.000000

WEIGHT OF LISTED PROTOTYPES:   99.76%

     STATE:    3
 Group Ref#    Coefficients
     1    1    0.000000
     2    2    0.000000
     3    3    0.999083

WEIGHT OF LISTED PROTOTYPES:   99.82%

     DIRECT MAX. DIABATIZATION FINISHED    
 CPU     0: STEP CPU TIME=     0.03 TOTAL CPU TIME=         76.8 (      1.3 MIN)
 TOTAL WALL CLOCK TIME=         81.3 SECONDS, CPU UTILIZATION IS    94.55%

DIABATS FOR SPIN-ORBIT CALCULATION ARE READY

TRANSITION DIPOLES BETWEEN ADIABATS (in A.U.):

STATE PAIR      X         Y         Z
    1    1  0.000000 -0.000000  2.014764
    2    1  0.000000 -0.288324  0.000000
    2    2  0.000000 -0.000000  2.194046
    3    1  0.000000 -0.000000 -0.000000
    3    2  0.212747 -0.000000  0.000000
    3    3  0.000000  0.000000  1.582083


TRANSITION DIPOLES BETWEEN DIABATS (in A.U.):

STATE PAIR      X         Y         Z
    1    1  0.000000 -0.000000  2.014764
    2    1  0.000000 -0.288324  0.000000
    2    2  0.000000 -0.000000  2.194046
    3    1  0.000000 -0.000000 -0.000000
    3    2  0.212747 -0.000000  0.000000
    3    3  0.000000  0.000000  1.582083

TRANSITION DIPOLES BETWEEN DIRECT MAX. DIABATS (in A.U.):

STATE PAIR      X         Y         Z
    1    1  0.000000 -0.000000  2.014764
    2    1  0.000000 -0.288324  0.000000
    2    2  0.000000 -0.000000  2.194046
    3    1  0.000000 -0.000000 -0.000000
    3    2  0.212747 -0.000000  0.000000
    3    3  0.000000  0.000000  1.582083
 No $TRANST Group Found.
 Quit without doing spin-orbit coupling
 ..... DONE WITH MP2 ENERGY .....
 CPU     0: STEP CPU TIME=     0.00 TOTAL CPU TIME=         76.8 (      1.3 MIN)
 TOTAL WALL CLOCK TIME=         81.3 SECONDS, CPU UTILIZATION IS    94.55%
            100000000  WORDS OF DYNAMIC MEMORY USED
 EXECUTION OF GAMESS TERMINATED NORMALLY Tue Nov  8 21:06:44 2022
 DDI: 5098536 bytes (4.9 MB / 0 MWords) used by master data server.

 ----------------------------------------
 CPU timing information for all processes
 ========================================
 0: 76.438 + 0.411 = 76.850
 ----------------------------------------
Note: The following floating-point exceptions are signalling: IEEE_DENORMAL
 ddikick.x: exited gracefully.
unset echo
----- accounting info -----
Files used on the master node io003 were:
-rwxr-xr-x 1 bjb2chen nooijen   91654 Nov  8 21:05 /scratch/bjb2chen/h2scat_cct_gmcpt_6o7e_3st_diab_as0.0.F05*
-rw-r--r-- 1 bjb2chen nooijen  917776 Nov  8 21:06 /scratch/bjb2chen/h2scat_cct_gmcpt_6o7e_3st_diab_as0.0.F09
-rw-r--r-- 1 bjb2chen nooijen 2290400 Nov  8 21:06 /scratch/bjb2chen/h2scat_cct_gmcpt_6o7e_3st_diab_as0.0.F10
-rw-r--r-- 1 bjb2chen nooijen  270672 Nov  8 21:06 /scratch/bjb2chen/h2scat_cct_gmcpt_6o7e_3st_diab_as0.0.F13
-rw-r--r-- 1 bjb2chen nooijen  180552 Nov  8 21:06 /scratch/bjb2chen/h2scat_cct_gmcpt_6o7e_3st_diab_as0.0.F15
-rw-r--r-- 1 bjb2chen nooijen       0 Nov  8 21:05 /scratch/bjb2chen/h2scat_cct_gmcpt_6o7e_3st_diab_as0.0.F16
-rw-r--r-- 1 bjb2chen nooijen    2408 Nov  8 21:06 /scratch/bjb2chen/h2scat_cct_gmcpt_6o7e_3st_diab_as0.0.F70
-rw-r--r-- 1 bjb2chen nooijen    2408 Nov  8 21:06 /scratch/bjb2chen/h2scat_cct_gmcpt_6o7e_3st_diab_as0.0.F71
-rw-r--r-- 1 bjb2chen nooijen    4808 Nov  8 21:06 /scratch/bjb2chen/h2scat_cct_gmcpt_6o7e_3st_diab_as0.0.F72
-rw-r--r-- 1 bjb2chen nooijen    4808 Nov  8 21:06 /scratch/bjb2chen/h2scat_cct_gmcpt_6o7e_3st_diab_as0.0.F73
-rw-r--r-- 1 bjb2chen nooijen  369624 Nov  8 21:06 /scratch/bjb2chen/h2scat_cct_gmcpt_6o7e_3st_diab_as0.0.F74
-rw-r--r-- 1 bjb2chen nooijen  720024 Nov  8 21:06 /scratch/bjb2chen/h2scat_cct_gmcpt_6o7e_3st_diab_as0.0.F75
-rw-r--r-- 1 bjb2chen nooijen   14448 Nov  8 21:06 /scratch/bjb2chen/h2scat_cct_gmcpt_6o7e_3st_diab_as0.0.F76
-rw-r--r-- 1 bjb2chen nooijen       0 Nov  8 21:05 /scratch/bjb2chen/h2scat_cct_gmcpt_6o7e_3st_diab_as0.0.F77
-rw-r--r-- 1 bjb2chen nooijen    4232 Nov  8 21:06 /scratch/bjb2chen/h2scat_cct_gmcpt_6o7e_3st_diab_as0.0.F78
-rw-r--r-- 1 bjb2chen nooijen    9608 Nov  8 21:06 /scratch/bjb2chen/h2scat_cct_gmcpt_6o7e_3st_diab_as0.0.F79
-rw-r--r-- 1 bjb2chen nooijen     104 Nov  8 21:06 /scratch/bjb2chen/h2scat_cct_gmcpt_6o7e_3st_diab_as0.0.F80
-rw-r--r-- 1 bjb2chen nooijen   69712 Nov  8 21:06 /scratch/bjb2chen/h2scat_cct_gmcpt_6o7e_3st_diab_as0.0.F81
-rw-r--r-- 1 bjb2chen nooijen     136 Nov  8 21:06 /scratch/bjb2chen/h2scat_cct_gmcpt_6o7e_3st_diab_as0.0.F82
-rw-r--r-- 1 bjb2chen nooijen   10376 Nov  8 21:06 /scratch/bjb2chen/h2scat_cct_gmcpt_6o7e_3st_diab_as0.0.F83
-rw-r--r-- 1 bjb2chen nooijen  105616 Nov  8 21:06 /scratch/bjb2chen/h2scat_cct_gmcpt_6o7e_3st_diab_as0.0.F84
-rw-r--r-- 1 bjb2chen nooijen  325648 Nov  8 21:06 /scratch/bjb2chen/h2scat_cct_gmcpt_6o7e_3st_diab_as0.0.F85
-rw-r--r-- 1 bjb2chen nooijen 2611648 Nov  8 21:06 /scratch/bjb2chen/h2scat_cct_gmcpt_6o7e_3st_diab_as0.0.F86
-rw-r--r-- 1 bjb2chen nooijen     656 Nov  8 21:06 /scratch/bjb2chen/h2scat_cct_gmcpt_6o7e_3st_diab_as0.0.F87
-rw-r--r-- 1 bjb2chen nooijen    5840 Nov  8 21:06 /scratch/bjb2chen/h2scat_cct_gmcpt_6o7e_3st_diab_as0.0.F88
-rw-r--r-- 1 bjb2chen nooijen     536 Nov  8 21:06 /scratch/bjb2chen/h2scat_cct_gmcpt_6o7e_3st_diab_as0.0.F89
-rw-r--r-- 1 bjb2chen nooijen       0 Nov  8 21:05 /scratch/bjb2chen/h2scat_cct_gmcpt_6o7e_3st_diab_as0.0.F90
-rw-r--r-- 1 bjb2chen nooijen    5560 Nov  8 21:06 /scratch/bjb2chen/h2scat_cct_gmcpt_6o7e_3st_diab_as0.0.F91
-rw-r--r-- 1 bjb2chen nooijen    7128 Nov  8 21:06 /scratch/bjb2chen/h2scat_cct_gmcpt_6o7e_3st_diab_as0.0.F92
-rw-r--r-- 1 bjb2chen nooijen    5560 Nov  8 21:06 /scratch/bjb2chen/h2scat_cct_gmcpt_6o7e_3st_diab_as0.0.F93
-rw-r--r-- 1 bjb2chen nooijen    3880 Nov  8 21:06 /scratch/bjb2chen/h2scat_cct_gmcpt_6o7e_3st_diab_as0.0.F94
-rw-r--r-- 1 bjb2chen nooijen    1640 Nov  8 21:06 /scratch/bjb2chen/h2scat_cct_gmcpt_6o7e_3st_diab_as0.0.F95
-rw-r--r-- 1 bjb2chen nooijen    7240 Nov  8 21:06 /scratch/bjb2chen/h2scat_cct_gmcpt_6o7e_3st_diab_as0.0.F96
-rw-r--r-- 1 bjb2chen nooijen     872 Nov  8 21:06 /scratch/bjb2chen/h2scat_cct_gmcpt_6o7e_3st_diab_as0.0.F97
-rw-r--r-- 1 bjb2chen nooijen    2408 Nov  8 21:06 /scratch/bjb2chen/h2scat_cct_gmcpt_6o7e_3st_diab_as0.0.F98
-rw-r--r-- 1 bjb2chen nooijen    6024 Nov  8 21:06 /scratch/bjb2chen/h2scat_cct_gmcpt_6o7e_3st_diab_as0.0.F99
ls: No match.
ls: No match.
ls: No match.
Tue 08 Nov 2022 09:06:48 PM EST
0.116u 0.015s 1:24.45 0.1%	0+0k 0+360io 0pf+0w
