----- GAMESS execution script 'rungms' -----
This job is running on host io003
under operating system Linux at Tue 01 Nov 2022 12:14:33 PM EDT
Available scratch disk space (Kbyte units) at beginning of the job is
Filesystem                  1K-blocks      Used Available Use% Mounted on
/dev/mapper/scratch-scratch 768943464 394188844 335667928  55% /scratch
GAMESS temporary binary files will be written to /scratch/bjb2chen
GAMESS supplementary output files will be written to /home/bjb2chen/.gamess_ascii_files/267495
Copying input file h2scat_cct_gmcpt_6o7e_3st_diab_as0.6.inp to your run's scratch directory...
cp h2scat_cct_gmcpt_6o7e_3st_diab_as0.6.inp /scratch/bjb2chen/h2scat_cct_gmcpt_6o7e_3st_diab_as0.6.F05
unset echo
/home/bjb2chen/gamess/ddikick.x /home/bjb2chen/gamess/gamess.00.x h2scat_cct_gmcpt_6o7e_3st_diab_as0.6 -ddi 1 1 io003 -scr /scratch/bjb2chen

 Distributed Data Interface kickoff program.
 Initiating 1 compute processes on 1 nodes to run the following command:
 /home/bjb2chen/gamess/gamess.00.x h2scat_cct_gmcpt_6o7e_3st_diab_as0.6 

          ******************************************************
          *         GAMESS VERSION = 02 AUG 2018 (R2)         *
          *             FROM IOWA STATE UNIVERSITY             *
          * M.W.SCHMIDT, K.K.BALDRIDGE, J.A.BOATZ, S.T.ELBERT, *
          *   M.S.GORDON, J.H.JENSEN, S.KOSEKI, N.MATSUNAGA,   *
          *          K.A.NGUYEN, S.J.SU, T.L.WINDUS,           *
          *       TOGETHER WITH M.DUPUIS, J.A.MONTGOMERY       *
          *         J.COMPUT.CHEM.  14, 1347-1363(1993)        *
          **************** 64 BIT LINUX VERSION ****************

  SINCE 1993, STUDENTS AND POSTDOCS WORKING AT IOWA STATE UNIVERSITY
  AND ALSO IN THEIR VARIOUS JOBS AFTER LEAVING ISU HAVE MADE IMPORTANT
  CONTRIBUTIONS TO THE CODE:
     IVANA ADAMOVIC, CHRISTINE AIKENS, YURI ALEXEEV, POOJA ARORA,
     ANDREY ASADCHEV, ROB BELL, PRADIPTA BANDYOPADHYAY, JONATHAN BENTZ,
     BRETT BODE, KURT BRORSEN, CALEB CARLIN, GALINA CHABAN, WEI CHEN,
     CHEOL HO CHOI, PAUL DAY, ALBERT DEFUSCO, NUWAN DESILVA, TIM DUDLEY,
     DMITRI FEDOROV, ALEX FINDLATER, GRAHAM FLETCHER, MARK FREITAG,
     KURT GLAESEMANN, ANASTASIA GUININA,
     DAN KEMP, GRANT MERRILL, NORIYUKI MINEZAWA, JONATHAN MULLIN,
     TAKESHI NAGATA, SEAN NEDD, HEATHER NETZLOFF, BOSILJKA NJEGIC, RYAN OLSON,
     MIKE PAK, BUU PHAM,
     SPENCER PRUITT, LUKE ROSKOP, JIM SHOEMAKER, LYUDMILA SLIPCHENKO,
     TONY SMITH, SAROM SOK LEANG, JIE SONG, TETSUYA TAKETSUGU, SIMON WEBB,
     PENG XU, SOOHAENG YOO, FEDERICO ZAHARIEV

  ADDITIONAL CODE HAS BEEN PROVIDED BY COLLABORATORS IN OTHER GROUPS:
     IOWA STATE UNIVERSITY:
          JOE IVANIC, AARON WEST, LAIMUTIS BYTAUTAS, KLAUS RUEDENBERG
     UNIVERSITY OF TOKYO: KIMIHIKO HIRAO, TAKAHITO NAKAJIMA,
          TAKAO TSUNEDA, MUNEAKI KAMIYA, SUSUMU YANAGISAWA,
          KIYOSHI YAGI, MAHITO CHIBA, SEIKEN TOKURA, NAOAKI KAWAKAMI
     UNIVERSITY OF AARHUS: FRANK JENSEN
     UNIVERSITY OF IOWA: VISVALDAS KAIRYS, HUI LI
     NATIONAL INST. OF STANDARDS AND TECHNOLOGY: WALT STEVENS, DAVID GARMER
     UNIVERSITY OF PISA: BENEDETTA MENNUCCI, JACOPO TOMASI
     UNIVERSITY OF MEMPHIS: HENRY KURTZ, PRAKASHAN KORAMBATH
     UNIVERSITY OF ALBERTA: TOBY ZENG, MARIUSZ KLOBUKOWSKI
     UNIVERSITY OF NEW ENGLAND: MARK SPACKMAN
     MIE UNIVERSITY: HIROAKI UMEDA
     NAT. INST. OF ADVANCED INDUSTRIAL SCIENCE AND TECHNOLOGY: KAZUO KITAURA
     MICHIGAN STATE UNIVERSITY:
          KAROL KOWALSKI, MARTA WLOCH, JEFFREY GOUR, JESSE LUTZ,
          WEI LI, JUN SHEN, J. EMILIANO DEUSTUA, PIOTR PIECUCH
     UNIVERSITY OF MINNESOTA:
          YINAN SHU
     UNIVERSITY OF SILESIA: MONIKA MUSIAL, STANISLAW KUCHARSKI
     FACULTES UNIVERSITAIRES NOTRE-DAME DE LA PAIX:
          OLIVIER QUINET, BENOIT CHAMPAGNE
     UNIVERSITY OF CALIFORNIA - SANTA BARBARA: BERNARD KIRTMAN
     INSTITUTE FOR MOLECULAR SCIENCE:
          KAZUYA ISHIMURA, MICHIO KATOUDA, AND SHIGERU NAGASE
     UNIVERSITY OF NOTRE DAME: ANNA POMOGAEVA, DAN CHIPMAN
     KYUSHU UNIVERSITY:
          HARUYUKI NAKANO,
          FENG LONG GU, JACEK KORCHOWIEC, MARCIN MAKOWSKI, AND YURIKO AOKI,
          HIROTOSHI MORI AND EISAKU MIYOSHI
     PENNSYLVANIA STATE UNIVERSITY:
          TZVETELIN IORDANOV, CHET SWALINA, JONATHAN SKONE,
          SHARON HAMMES-SCHIFFER
     WASEDA UNIVERSITY:
          MASATO KOBAYASHI, TOMOKO AKAMA, TSUGUKI TOUMA,
          TAKESHI YOSHIKAWA, YASUHIRO IKABATA, JUNJI SEINO,
          YUYA NAKAJIMA, HIROMI NAKAI
     NANJING UNIVERSITY: SHUHUA LI
     UNIVERSITY OF NEBRASKA:
          PEIFENG SU, DEJUN SI, NANDUN THELLAMUREGE, YALI WANG, HUI LI
     UNIVERSITY OF ZURICH: ROBERTO PEVERATI, KIM BALDRIDGE
     N. COPERNICUS UNIVERSITY AND JACKSON STATE UNIVERSITY:
          MARIA BARYSZ
     UNIVERSITY OF COPENHAGEN: Jimmy Kromann, CASPER STEINMANN
     TOKYO INSTITUTE OF TECHNOLOGY: HIROYA NAKATA
     NAGOYA UNIVERSITY: YOSHIO NISHIMOTO, STEPHAN IRLE
     MOSCOW STATE UNIVERSITY: VLADIMIR MIRONOV

 EXECUTION OF GAMESS BEGUN Tue Nov  1 12:14:33 2022

            ECHO OF THE FIRST FEW INPUT CARDS -
 INPUT CARD> !Step 4: single point gmcpt calculation averaging 3 states                     
 INPUT CARD> !        for H2S+ at H2S structure. The RHF orbitals at                        
 INPUT CARD> !        the MP2 optimized structure is taken as the initial                   
 INPUT CARD> !        guess of orbitals in the $VEC group. 3 states are asked               
 INPUT CARD> !        for because state 4 and 5 are a bit higher. Now with the DMO group.   
 INPUT CARD> !        The calculation should generate the DMO for diabatization calculation.
 INPUT CARD> !        Now with the REFDET group to do diabatization.                        
 INPUT CARD> $system kdiag=3 mwords=100 memddi=1000 parall=.t. $end                         
 INPUT CARD> $contrl runtyp=energy ispher=1 $end                                            
 INPUT CARD> $contrl icut=9 itol=20 inttyp=rysquad qmttol=1.0d-05 nosym=1 $end              
 INPUT CARD> $scf    npunch=2 conv=1.0d-06 dirscf=.t.      $end                             
 INPUT CARD> $contrl scftyp=mcscf  mult=2 maxit=200 icharg=1 mplevl=2 $end                  
 INPUT CARD> $guess  guess=moread norb=67 purify=.t. $end                                   
 INPUT CARD> $basis  gbasis=cct $end                                                        
 INPUT CARD> $mcscf  cistep=gmcci fullnr=.t. finci=mos                                      
 INPUT CARD>         acurcy=1.d-6 maxit=100 $end                                            
 INPUT CARD> $trans  dirtrf=.t. $end                                                        
 INPUT CARD> $mrmp   mrpt=gmcpt rdvecs=.f. $end                                             
 INPUT CARD> $gmcpt  nmofzc=1 nmodoc=4 nmoact=6 nelact=7 stsym(1)=A                         
 INPUT CARD>         reftyp=ormas nspace=1 mstart(1)=6 mine(1)=7 maxe(1)=7                  
 INPUT CARD>         kstate(1)=1,1,1                                                        
 INPUT CARD>         wstate(1)=1,1,1                                                        
 INPUT CARD>         iwgt=0 thrwgt=-1.0 krot=.f. kszdoe=.f. knospn=.f.                      
 INPUT CARD>         thrde=-1.0 edshft=0.02 $end                                            
 INPUT CARD> $data                                                                          
 INPUT CARD> H2S+ 5 states calculation at H2S structure.                                    
 INPUT CARD> C1                                                                             
 INPUT CARD>S 16.0 -.018888252 0 -.1250090427                                               
 INPUT CARD>H 1.0 -.6602816831 0 .5106727754                                                
 INPUT CARD>H 1.0 1.2594689351 0 1.0875162614                                               
 INPUT CARD> $END                                                                           
 INPUT CARD>--- OPTIMIZED RHF      MO-S --- GENERATED AT Thu Oct 27 10:13:22 2022           
 INPUT CARD>E=     -398.9058481329, E(NUC)=   12.9846624426                                 
 INPUT CARD> $VEC                                                                           
 INPUT CARD> 1  1 1.00011026E+00 1.43520516E-04 1.30762006E-04-7.19841046E-04-4.04367933E-05
 INPUT CARD> 1  2 0.00000000E+00 0.00000000E+00 1.46481549E-04 0.00000000E+00 0.00000000E+00
 INPUT CARD> 1  3 1.53800072E-04 0.00000000E+00 0.00000000E+00-7.74673354E-05 0.00000000E+00
 INPUT CARD> 1  4 0.00000000E+00-6.12563802E-06 8.50208756E-06-9.50065215E-06 9.98564596E-07
 INPUT CARD> 1  5 0.00000000E+00 0.00000000E+00 0.00000000E+00 1.49530933E-05-4.16980391E-05
 INPUT CARD> 1  6 2.67449458E-05 0.00000000E+00 0.00000000E+00 0.00000000E+00 0.00000000E+00
 INPUT CARD> 1  7 0.00000000E+00-1.67146408E-06 0.00000000E+00 1.76499637E-05 0.00000000E+00
 INPUT CARD> 1  8-1.54074593E-05 0.00000000E+00 0.00000000E+00 0.00000000E+00-1.83884890E-06
 INPUT CARD> 1  9 2.36115839E-06-5.22309483E-07 0.00000000E+00 0.00000000E+00 0.00000000E+00
 INPUT CARD> 1 10-6.24513082E-07-9.98605962E-05 1.10759173E-05-2.55516507E-06 0.00000000E+00
 INPUT CARD> 1 11 2.50401905E-06-4.41737445E-05 0.00000000E+00 3.25175870E-05-2.07356794E-06
 INPUT CARD> 1 12 6.55129107E-07 1.41843883E-06 0.00000000E+00-1.34329310E-06 0.00000000E+00
 INPUT CARD> 1 13-6.24513082E-07-9.98605962E-05 1.10759173E-05 2.55516507E-06 0.00000000E+00
 INPUT CARD> 1 14 2.50401905E-06 4.41737445E-05 0.00000000E+00 3.25175870E-05-2.07356794E-06
 INPUT CARD> 1 15 6.55129107E-07 1.41843883E-06 0.00000000E+00 1.34329310E-06 0.00000000E+00
 INPUT CARD> 2  1 3.15060126E-04-9.47897368E-01 1.19814733E-03-7.03217165E-02-2.35194099E-03
  100000000 WORDS OF MEMORY AVAILABLE

     BASIS OPTIONS
     -------------
     GBASIS=CCT          IGAUSS=       0      POLAR=NONE    
     NDFUNC=       0     NFFUNC=       0     DIFFSP=       F
     NPFUNC=       0      DIFFS=       F     BASNAM=        


     RUN TITLE
     ---------
  H2S+ 5 states calculation at H2S structure.                                    

 THE POINT GROUP OF THE MOLECULE IS C1      
 THE ORDER OF THE PRINCIPAL AXIS IS     0

 ATOM      ATOMIC                      COORDINATES (BOHR)
           CHARGE         X                   Y                   Z
 S          16.0    -0.0356936207        0.0000000000       -0.2362328367
 H           1.0    -1.2477514558        0.0000000000        0.9650316149
 H           1.0     2.3800511774        0.0000000000        2.0551077412

          INTERNUCLEAR DISTANCES (ANGS.)
          ------------------------------

                1 S          2 H          3 H     

   1 S       0.0000000    0.9030376 *  1.7619349 *
   2 H       0.9030376 *  0.0000000    2.0045426 *
   3 H       1.7619349 *  2.0045426 *  0.0000000  

  * ... LESS THAN  3.000


     ATOMIC BASIS SET
     ----------------
 THE CONTRACTED PRIMITIVE FUNCTIONS HAVE BEEN UNNORMALIZED
 THE CONTRACTED BASIS FUNCTIONS ARE NOW NORMALIZED TO UNITY

  SHELL TYPE  PRIMITIVE        EXPONENT          CONTRACTION COEFFICIENT(S)

 S         

      1   S       1        374100.0000000    0.000054209268
      1   S       2         56050.0000000    0.000420818270
      1   S       3         12760.0000000    0.002206787384
      1   S       4          3615.0000000    0.009191777710
      1   S       5          1183.0000000    0.032109497373
      1   S       6           428.8000000    0.094660037747
      1   S       7           167.8000000    0.223610482509
      1   S       8            69.4700000    0.374360324545
      1   S       9            29.8400000    0.329079276830
      1   S      10            12.7200000    0.084696407407
      1   S      11             5.2440000    0.000440812524
      1   S      12             2.2190000    0.001648126146
      1   S      13             0.3490000    0.000301279703

      2   S      14        374100.0000000   -0.000015779023
      2   S      15         56050.0000000   -0.000122365697
      2   S      16         12760.0000000   -0.000644045337
      2   S      17          3615.0000000   -0.002689248357
      2   S      18          1183.0000000   -0.009569414953
      2   S      19           428.8000000   -0.029175032745
      2   S      20           167.8000000   -0.075823808684
      2   S      21            69.4700000   -0.154211865224
      2   S      22            29.8400000   -0.205508406220
      2   S      23            12.7200000    0.008626751105
      2   S      24             5.2440000    0.544021768700
      2   S      25             2.2190000    0.570956375443
      2   S      26             0.3490000   -0.009668025289

      3   S      27        374100.0000000    0.000006823816
      3   S      28         56050.0000000    0.000052878906
      3   S      29         12760.0000000    0.000278673749
      3   S      30          3615.0000000    0.001162407410
      3   S      31          1183.0000000    0.004149991892
      3   S      32           428.8000000    0.012665073653
      3   S      33           167.8000000    0.033294544367
      3   S      34            69.4700000    0.068749008698
      3   S      35            29.8400000    0.096101773381
      3   S      36            12.7200000   -0.005670123205
      3   S      37             5.2440000   -0.320764818841
      3   S      38             2.2190000   -0.598947641366
      3   S      39             0.3490000    1.120107735959

      4   S      40             0.7767000    1.000000000000

      5   S      41             0.1322000    1.000000000000

      6   P      42           574.4000000    0.002496922983
      6   P      43           135.8000000    0.019870751061
      6   P      44            43.1900000    0.091254916388
      6   P      45            15.8700000    0.262462200493
      6   P      46             6.2080000    0.447290816633
      6   P      47             2.4830000    0.365836568252
      6   P      48             0.3229000   -0.005183992799

      7   P      49           574.4000000   -0.001064023915
      7   P      50           135.8000000   -0.008474448710
      7   P      51            43.1900000   -0.039919557083
      7   P      52            15.8700000   -0.117571603827
      7   P      53             6.2080000   -0.212591326962
      7   P      54             2.4830000   -0.166354909681
      7   P      55             0.3229000    0.977014802934

      8   P      56             0.8688000    1.000000000000

      9   P      57             0.1098000    1.000000000000

     10   D      58             0.8120000    1.000000000000

     11   D      59             0.2730000    1.000000000000

     12   F      60             0.5570000    1.000000000000

     13   D      61             3.7560000    1.000000000000

 H         

     14   S      62            33.8700000    0.025494863235
     14   S      63             5.0950000    0.190362765893
     14   S      64             1.1590000    0.852162022245

     15   S      65             0.3258000    1.000000000000

     16   S      66             0.1027000    1.000000000000

     17   P      67             1.4070000    1.000000000000

     18   P      68             0.3880000    1.000000000000

     19   D      69             1.0570000    1.000000000000

 H         

     20   S      70            33.8700000    0.025494863235
     20   S      71             5.0950000    0.190362765893
     20   S      72             1.1590000    0.852162022245

     21   S      73             0.3258000    1.000000000000

     22   S      74             0.1027000    1.000000000000

     23   P      75             1.4070000    1.000000000000

     24   P      76             0.3880000    1.000000000000

     25   D      77             1.0570000    1.000000000000

 TOTAL NUMBER OF BASIS SET SHELLS             =   25
 NUMBER OF CARTESIAN GAUSSIAN BASIS FUNCTIONS =   75
 NOTE: THIS RUN WILL RESTRICT THE MO VARIATION SPACE TO SPHERICAL HARMONICS.
 THE NUMBER OF ORBITALS KEPT IN THE VARIATIONAL SPACE WILL BE PRINTED LATER.
 NUMBER OF ELECTRONS                          =   17
 CHARGE OF MOLECULE                           =    1
 SPIN MULTIPLICITY                            =    2
 NUMBER OF OCCUPIED ORBITALS (ALPHA)          =    9
 NUMBER OF OCCUPIED ORBITALS (BETA )          =    8
 TOTAL NUMBER OF ATOMS                        =    3
 THE NUCLEAR REPULSION ENERGY IS       14.4453589135

     $CONTRL OPTIONS
     ---------------
 SCFTYP=MCSCF        RUNTYP=ENERGY       EXETYP=RUN     
 MPLEVL=       2     CITYP =NONE         CCTYP =NONE         VBTYP =NONE    
 DFTTYP=NONE         TDDFT =NONE    
 MULT  =       2     ICHARG=       1     NZVAR =       0     COORD =UNIQUE  
 PP    =NONE         RELWFN=NONE         LOCAL =NONE         NUMGRD=       F
 ISPHER=       1     NOSYM =       1     MAXIT =     200     UNITS =ANGS    
 PLTORB=       F     MOLPLT=       F     AIMPAC=       F     FRIEND=        
 NPRINT=       7     IREST =       0     GEOM  =INPUT   
 NORMF =       0     NORMP =       0     ITOL  =      20     ICUT  =       9
 INTTYP=RYSQUAD      GRDTYP=BEST         QMTTOL= 1.0E-05

     $SYSTEM OPTIONS
     ---------------
  REPLICATED MEMORY=   100000000 WORDS (ON EVERY NODE).
 DISTRIBUTED MEMDDI=        1000 MILLION WORDS IN AGGREGATE,
 MEMDDI DISTRIBUTED OVER   1 PROCESSORS IS  1000000000 WORDS/PROCESSOR.
 TOTAL MEMORY REQUESTED ON EACH PROCESSOR=  1100000000 WORDS.
 TIMLIM=      525600.00 MINUTES, OR     365.0 DAYS.
 PARALL= T  BALTYP=  DLB     KDIAG=    3  COREFL= F
 MXSEQ2=     300 MXSEQ3=     150  mem10=         0

          ----------------
          PROPERTIES INPUT
          ----------------

     MOMENTS            FIELD           POTENTIAL          DENSITY
 IEMOM =       1   IEFLD =       0   IEPOT =       0   IEDEN =       0
 WHERE =COMASS     WHERE =NUCLEI     WHERE =NUCLEI     WHERE =NUCLEI  
 OUTPUT=BOTH       OUTPUT=BOTH       OUTPUT=BOTH       OUTPUT=BOTH    
 IEMINT=       0   IEFINT=       0                     IEDINT=       0
                                                       MORB  =       0

     -------------------------------
     INTEGRAL TRANSFORMATION OPTIONS
     -------------------------------
     NWORD  =            0
     CUTOFF = 1.0E-09     MPTRAN =       0
     DIRTRF =       T     AOINTS =DUP     

          ----------------------
          MCSCF INPUT PARAMETERS
          ----------------------
 CONVERGER SELECTION: FOCAS = F  SOSCF = F  FULLNR = T  QUD = F  JACOBI = F
 SECULAR EQUATION METHOD CISTEP = GMCCI   
 --- GENERAL INPUT OPTIONS:
 MAXIT =     100  MICIT =       1  ACURCY= 1.000E-06
 DAMP  =   0.000  CANONC=       T  ENGTOL= 1.000E-10
 EKT   =       F  NPUNCH=       2  NWORD =         0
 REGENERATE CI AFTER CONVERGENCE = NONE    
 DIABATIZATION AFTER CONVERGENCE =        F
 --- INPUT FOR FULLNR CONVERGER:
 METHOD=DM2       FORS  =       F  DROPC =       T
 LINSER=       F  FCORE =       F  NORB  =      75

          ----------------------
          INTEGRAL INPUT OPTIONS
          ----------------------
 NOPK  =       1 NORDER=       0 SCHWRZ=       T

 ------------------------------------------
 MULTIREFERENCE PERTURBATION THEORY CONTROL
 ------------------------------------------
 MRPT=GMCPT    READ CONVERGED MCSCF VECTORS= F


     ------------------------------------------
     THE POINT GROUP IS C1 , NAXIS= 1, ORDER= 1
     ------------------------------------------

 -- VARIATIONAL SPACE WILL BE RESTRICTED TO PURE SPHERICAL HARMONICS ONLY --
 AFTER EXCLUDING CONTAMINANT COMBINATIONS FROM THE CARTESIAN GAUSSIAN BASIS
 SET, THE NUMBER OF SPHERICAL HARMONICS KEPT IN THE VARIATION SPACE IS   67

     DIMENSIONS OF THE SYMMETRY SUBSPACES ARE
 A   =   67

 ..... DONE SETTING UP THE RUN .....
 CPU     0: STEP CPU TIME=     0.04 TOTAL CPU TIME=          0.0 (      0.0 MIN)
 TOTAL WALL CLOCK TIME=          0.0 SECONDS, CPU UTILIZATION IS    80.00%

          ********************
          1 ELECTRON INTEGRALS
          ********************
 TIME TO DO   DIPOLE INTEGRALS=      0.00
 ...... END OF ONE-ELECTRON INTEGRALS ......
 CPU     0: STEP CPU TIME=     0.00 TOTAL CPU TIME=          0.0 (      0.0 MIN)
 TOTAL WALL CLOCK TIME=          0.0 SECONDS, CPU UTILIZATION IS    80.00%

          -------------
          GUESS OPTIONS
          -------------
          GUESS =MOREAD            NORB  =      67          NORDER=       0
          MIX   =       F          PRTMO =       F          PUNMO =       F
          TOLZ  = 1.0E-08          TOLE  = 1.0E-05
          SYMDEN=       F          PURIFY=       T

 INITIAL GUESS ORBITALS GENERATED BY MOREAD   ROUTINE.

 STATISTICS FOR GENERATION OF SYMMETRY ORBITAL -Q- MATRIX
 NUMBER OF CARTESIAN ATOMIC ORBITALS=         75
 NUMBER OF SPHERICAL CONTAMINANTS DROPPED=     8
 NUMBER OF LINEARLY DEPENDENT MOS DROPPED=     0
 TOTAL NUMBER OF MOS IN VARIATION SPACE=      67
 ORBITAL PURIFICATION WILL OCCUR

 SYMMETRIES FOR INITIAL GUESS ORBITALS FOLLOW.   BOTH SET(S).
     9 ORBITALS ARE OCCUPIED (    5 CORE ORBITALS).
     1=A        2=A        3=A        4=A        5=A        6=A        7=A   
     8=A        9=A       10=A       11=A       12=A       13=A       14=A   
    15=A       16=A       17=A       18=A       19=A       20=A       21=A   
    22=A       23=A       24=A       25=A       26=A       27=A       28=A   
    29=A       30=A       31=A       32=A       33=A       34=A       35=A   
    36=A       37=A       38=A       39=A       40=A       41=A       42=A   
    43=A       44=A       45=A       46=A       47=A       48=A       49=A   
    50=A       51=A       52=A       53=A       54=A       55=A       56=A   
    57=A       58=A       59=A       60=A       61=A       62=A       63=A   
    64=A       65=A       66=A       67=A   
 ...... END OF INITIAL ORBITAL SELECTION ......
 CPU     0: STEP CPU TIME=     0.02 TOTAL CPU TIME=          0.1 (      0.0 MIN)
 TOTAL WALL CLOCK TIME=          0.1 SECONDS, CPU UTILIZATION IS    85.71%

                    ----------------------
                    AO INTEGRAL TECHNOLOGY
                    ----------------------
     S,P,L SHELL ROTATED AXIS INTEGRALS, REPROGRAMMED BY
        KAZUYA ISHIMURA (IMS) AND JOSE SIERRA (SYNSTAR).
     S,P,D,L SHELL ROTATED AXIS INTEGRALS PROGRAMMED BY
        KAZUYA ISHIMURA (INSTITUTE FOR MOLECULAR SCIENCE).
     S,P,D,F,G SHELL TO TOTAL QUARTET ANGULAR MOMENTUM SUM 5,
        ERIC PROGRAM BY GRAHAM FLETCHER (ELORET AND NASA ADVANCED
        SUPERCOMPUTING DIVISION, AMES RESEARCH CENTER).
     S,P,D,F,G,L SHELL GENERAL RYS QUADRATURE PROGRAMMED BY
        MICHEL DUPUIS (PACIFIC NORTHWEST NATIONAL LABORATORY).

          --------------------
          2 ELECTRON INTEGRALS
          --------------------

 DIRECT SCF METHOD SKIPS INTEGRAL STORAGE ON DISK.
 DIRECT TRANSFORMATION SKIPS AO INTEGRAL STORAGE ON DISK.
  ...... END OF TWO-ELECTRON INTEGRALS .....
 STEP CPU TIME =     0.01 TOTAL CPU TIME =          0.1 (      0.0 MIN)
 TOTAL WALL CLOCK TIME=          0.1 SECONDS, CPU UTILIZATION IS    87.50%
 DDI: Creating Array [0] - 5625 x 66 = 371250 words.
 DDI: Creating Array [1] - 56 x 726 = 40656 words.
 DDI: Creating Array [2] - 66 x 66 = 4356 words.
 DDI: Creating Array [3] - 2850 x 66 = 188100 words.

          -----------------
          MCSCF CALCULATION
          -----------------

 ----- NUCLEAR ENERGY ----- =        14.4453589135

     -------------------------------------------------
     GMC-PT/GMC-QDPT or general MCSCF input parameters
     -------------------------------------------------
 # of frozen core orbs. =         1 ->         0
 # of doubly occ. orbs. =         4
 # of active      orbs. =         6
 # of virtual     orbs. =        56
 # of active electrons  =         7
 # of states in CI      =         3
 Highest state in CI    =         3
 kstate =  1 1 1
 avecoe =  0.333 0.333 0.333
 State symmetry           = A           
 Assigned symmetry number = 1

 <<<Act. MO sym.: 111111

 <<<Division of 1-ext.:  0
 <<<Division of 2-ext.:  0

 *** Reference space

 Reference type: ORMAS (= Occupation restricted multiple active space)
 # of orbitals          =  6
 # of minimum electrons =  7
 # of maximum electrons =  7
 State symmetry    =    1 (input)
 2*Sz              =    1 (input)
 Spin multiplicity =    2 (input)
 Dimension of reference space =       300  (from       792 walks)

 Dimension of reference space =       300  (from       300 walks)

 <<<Ionized spaces for Ref-CI:
      0:          300 /   -1-0:          625 /  0-1-0:          690

 EVALUATING EXCHANGE INTEGRALS FOR DIRECT INTEGRAL TRANSFORMATION
 SCHWARZ INEQUALITY OVERHEAD:      2850 INTEGRALS, T=        0.01

     --------------------------------------------
     PARTIAL TWO ELECTRON INTEGRAL TRANSFORMATION
     --------------------------------------------

 NUMBER OF CORE MOLECULAR ORBITALS     =    5
 NUMBER OF OCCUPIED MOLECULAR ORBITALS =   11
 TOTAL NUMBER OF MOLECULAR ORBITALS    =   67
 TOTAL NUMBER OF ATOMIC ORBITALS       =   75
 THRESHOLD FOR KEEPING TRANSFORMED 2E- INTEGRALS = 1.000E-09

 -------------------------------     ------------------------------
 DISTRIBUTED DATA TRANSFORMATION     PROGRAM WRITTEN BY G. FLETCHER
 -------------------------------     ------------------------------

 THE DISTRIBUTED MEMORY REQUIRED FOR THIS STEP IS MEMDDI=         1 MWORDS
 CREATING DISTRIBUTED STORAGE FOR [VIR OCC|VIR OCC] INTEGRALS
 CREATING DISTRIBUTED STORAGE FOR [VIR OCC|OCC OCC] INTEGRALS
 CREATING DISTRIBUTED STORAGE FOR [OCC OCC|OCC OCC] INTEGRALS
 CREATING DISTRIBUTED STORAGE FOR [VIR VIR|OCC OCC] INTEGRALS
 FOR    1 PROCESSORS, THE REPLICATED MEMORY NEEDED IS      304672 WORDS.
 SCHWARZ INEQUALITY OVERHEAD:      2850 INTEGRALS, T=        0.01

      DIRECT 4-INDEX TRANSFORMATION 
      SCHWARZ INEQUALITY TEST SKIPPED          4 INTEGRAL BLOCKS
 ----- FROZEN CORE ENERGY =      -396.4146017427
 ... END OF INTEGRAL TRANSFORMATION ...
 CPU     0: STEP CPU TIME=     1.95 TOTAL CPU TIME=          2.0 (      0.0 MIN)
 TOTAL WALL CLOCK TIME=          2.0 SECONDS, CPU UTILIZATION IS    99.02%

     --------------------------------     -----------------------------
     MCHF NEWTON-RAPHSON OPTIMIZATION     CODE WRITTEN BY MICHEL DUPUIS
     --------------------------------     -----------------------------
     PARALLEL VERSION WRITTEN BY G. FLETCHER (ELORET)
     NASA ADVANCED SUPERCOMPUTING DIVISION, AMES RESEARCH CENTER

 NUMBER OF INDEPENDENT ORBITAL ROTATION PARAMETERS =   392
 ..... DONE SOLVING NEWTON-RAPHSON EQUATIONS .....
 CPU     0: STEP CPU TIME=     0.39 TOTAL CPU TIME=          2.4 (      0.0 MIN)
 TOTAL WALL CLOCK TIME=          2.4 SECONDS, CPU UTILIZATION IS    99.18%
 ..... DONE WITH NTN-RPH ORBITAL ROTATIONS ..... 
 CPU     0: STEP CPU TIME=     0.00 TOTAL CPU TIME=          2.4 (      0.0 MIN)
 TOTAL WALL CLOCK TIME=          2.4 SECONDS, CPU UTILIZATION IS    99.18%
 MAXIMUM MEMORY USED BY NTN-RPH CODE WAS    110094 WORDS.

 ITER     TOTAL ENERGY      DEL(E)  LAGRANGIAN ASYMMETRY   SQCDF  MICIT   DAMP
   1     -397.910455120 -0.910455120  0.159016   20    6 6.236E-02  1   0.0000
   2     -398.008129414 -0.097674294  0.021516   14    9 2.350E-01  1   0.0000
   3     -398.028181647 -0.020052233  0.007285   14    9 3.836E-01  1   0.0000
   4     -398.036726643 -0.008544996  0.003168   28    7 1.202E-01  1   0.0034
   5     -398.039662890 -0.002936247  0.001439   17    9 1.264E-02  1   0.0000
   6     -398.040120292 -0.000457402  0.001012   21   11 7.379E-03  1   0.0000
   7     -398.040443321 -0.000323029  0.000870   21   11 5.672E-03  1   0.0000
   8     -398.040706544 -0.000263223  0.000746   38    9 3.983E-03  1   0.0000
   9     -398.040891389 -0.000184844  0.000602   21   11 2.378E-03  1   0.0000
  10     -398.040998956 -0.000107567  0.000454   21   11 1.241E-03  1   0.0000
  11     -398.041053467 -0.000054510  0.000324   21   11 5.956E-04  1   0.0000
  12     -398.041079016 -0.000025549  0.000224   21   11 2.729E-04  1   0.0000
  13     -398.041090531 -0.000011515  0.000151   21   11 1.219E-04  1   0.0000
  14     -398.041095618 -0.000005087  0.000101   21   11 5.368E-05  1   0.0000
  15     -398.041097840 -0.000002222  0.000067   21   11 2.343E-05  1   0.0000
  16     -398.041098805 -0.000000965  0.000044   21   11 1.018E-05  1   0.0000
  17     -398.041099222 -0.000000417  0.000029   21   11 4.411E-06  1   0.0000
  18     -398.041099402 -0.000000180  0.000019   21   11 1.908E-06  1   0.0000
  19     -398.041099479 -0.000000078  0.000012   21   11 8.247E-07  1   0.0000
  20     -398.041099513 -0.000000033  0.000008   21   11 3.442E-07  1   0.0000
  21     -398.041099527 -0.000000014  0.000005   16    8 1.636E-07  1   0.0000
  22     -398.041099533 -0.000000006  0.000003   21   11 6.754E-08  1   0.0000
  23     -398.041099536 -0.000000003  0.000002   21   11 2.913E-08  1   0.0000
  24     -398.041099537 -0.000000001  0.000001   16    8 1.259E-08  1   0.0000
  25     -398.041099538 -0.000000001  0.000001   16    8 5.432E-09  1   0.0000

          --------------------
          LAGRANGIAN CONVERGED
          --------------------

 FINAL MCSCF ENERGY IS     -398.0410995377 AFTER  25 ITERATIONS

 -MCCI- BASED ON OPTIMIZED ORBITALS
 ----------------------------------

 PLEASE NOTE: IF THE ACTIVE ORBITALS ARE CANONICALIZED BELOW,
 THE FOLLOWING CI EXPANSION COEFFICIENTS AND THE DENSITY DO NOT
 CORRESPOND TO THE PRINTED ORBITALS.  THE PRINTED EXPANSIONS MATCH
 THE ORBITALS USED DURING THE LAST ITERATION.  IF YOU WISH TO SEE
 CI EXPANSIONS BASED ON THE CANONICAL (OR NATURAL) ORBITALS, YOU
 MUST RUN A CI CALCULATION WITH THAT ORBITAL CHOICE READ IN $VEC.

 Averaged energy =    -398.041099538

 State #    1  Energy =    -398.138987758  S =  0.500

      Det      Coef    Occupancy (Ignoring core)
      ---      ----    --------- --------- -----
        1   -0.957738  111100111000
        5    0.090168  011110111000
        7    0.078267  110101111000
        8   -0.093353  101101111000
       47    0.065023  111010011100
       63   -0.054644  110110110010
       79   -0.061622  101110101010
      154    0.051676  101110110001
      157   -0.062625  110101110001
      166    0.064713  111100101001
      168    0.051788  110110101001
      173   -0.061151  101101101001
      181   -0.056001  111100011001

 State #    2  Energy =    -398.037169471  S =  0.500

      Det      Coef    Occupancy (Ignoring core)
      ---      ----    --------- --------- -----
        6    0.060586  111001111000
       16   -0.877643  111100110100
       31    0.407392  111100101100
       33    0.053612  110110101100
       34   -0.082919  101110101100
       48   -0.052656  110110011100
       53    0.050814  101101011100
       62    0.069506  111010110010
      121   -0.061328  111100010110
      196    0.060806  111100100101

 State #    3  Energy =    -397.947141384  S =  0.500

      Det      Coef    Occupancy (Ignoring core)
      ---      ----    --------- --------- -----
        2   -0.189516  111010111000
       16   -0.365773  111100110100
       18    0.138670  110110110100
       19   -0.100273  101110110100
       22    0.105933  110101110100
       23   -0.129744  101101110100
       24    0.056196  011101110100
       31   -0.778452  111100101100
       33   -0.111274  110110101100
       37   -0.076051  110101101100
       39    0.053659  011101101100
       46    0.288944  111100011100
       52    0.060158  110101011100
       77    0.073310  111010101010
      108    0.063559  110110100110
      109   -0.054990  101110100110
      113   -0.058805  101101100110
      136   -0.057919  111100001110
      196    0.053694  111100100101
      199   -0.050417  101110100101
      202    0.058651  110101100101

 DENSITY MATRIX OVER ACTIVE MO-S

             1           2           3           4           5

    1    1.9478578
    2   -0.1056638   1.6707259
    3    0.0218653  -0.0641225   1.6173917
    4   -0.0000000  -0.0000000   0.0000000   1.6227532
    5    0.0910125  -0.0289145  -0.0107245   0.0000000   0.0792564
    6    0.0683592   0.0861901   0.0307670  -0.0000000   0.0404448

             6

    6    0.0620150

 FORMING THE "STANDARD FOCK OPERATOR" IN DIRECT AO INTEGRAL MODE...
 ONLY THE    5 CORE AND   56 VIRTUAL ORBITALS WILL BE CANONICALIZED

          ----------------------
          MCSCF NATURAL ORBITALS
          ----------------------

                      1          2          3          4          5
                  -92.3301    -9.3481    -7.0351    -7.0253    -7.0238
                     A          A          A          A          A   
    1  S  1  S    1.000138  -0.000897   0.000945  -0.000205  -0.000000
    2  S  1  S    0.000332   0.944191   0.010958  -0.003338  -0.000000
    3  S  1  S    0.000485  -0.013278   0.007350   0.000023  -0.000000
    4  S  1  S   -0.000711   0.069133   0.002071   0.000991  -0.000000
    5  S  1  S    0.000029  -0.000960   0.004021  -0.001462  -0.000000
    6  S  1  X   -0.000052  -0.000715   0.698191   0.667960  -0.000000
    7  S  1  Y   -0.000000   0.000000  -0.000000  -0.000000   0.970326
    8  S  1  Z    0.000128   0.003317  -0.667103   0.700015  -0.000000
    9  S  1  X   -0.000187   0.004025  -0.005671  -0.002699  -0.000000
   10  S  1  Y   -0.000000   0.000000  -0.000000  -0.000000  -0.001027
   11  S  1  Z    0.000243  -0.004852   0.005019  -0.002025  -0.000000
   12  S  1  X   -0.000021   0.001535   0.044043   0.045438  -0.000000
   13  S  1  Y   -0.000000   0.000000  -0.000000  -0.000000   0.061047
   14  S  1  Z   -0.000026  -0.000381  -0.041205   0.046639  -0.000000
   15  S  1  X   -0.000013   0.000171   0.000846   0.001450  -0.000000
   16  S  1  Y   -0.000000   0.000000  -0.000000  -0.000000   0.001637
   17  S  1  Z    0.000003  -0.000110  -0.000215   0.001095  -0.000000
   18  S  1 XX    0.000013  -0.000196   0.000309  -0.000223  -0.000000
   19  S  1 YY   -0.000016   0.000395  -0.000410  -0.000171  -0.000000
   20  S  1 ZZ    0.000003  -0.000199   0.000101   0.000394  -0.000000
   21  S  1 XY   -0.000000   0.000000  -0.000000  -0.000000  -0.000016
   22  S  1 XZ   -0.000014   0.001076  -0.000716   0.000370  -0.000000
   23  S  1 YZ   -0.000000   0.000000  -0.000000  -0.000000   0.000168
   24  S  1 XX    0.000020  -0.000431   0.000332   0.000467  -0.000000
   25  S  1 YY   -0.000049   0.000941  -0.001076   0.000595  -0.000000
   26  S  1 ZZ    0.000028  -0.000510   0.000744  -0.001062  -0.000000
   27  S  1 XY   -0.000000   0.000000  -0.000000  -0.000000   0.000280
   28  S  1 XZ   -0.000065   0.000954  -0.001860  -0.001252  -0.000000
   29  S  1 YZ   -0.000000   0.000000  -0.000000  -0.000000  -0.000399
   30  S  1 XXX  -0.000001  -0.000008   0.000125   0.000088  -0.000000
   31  S  1 YYY  -0.000000   0.000000  -0.000000  -0.000000  -0.000033
   32  S  1 ZZZ  -0.000002   0.000017   0.000010  -0.000044  -0.000000
   33  S  1 XXY  -0.000000   0.000000  -0.000000  -0.000000   0.000046
   34  S  1 XXZ   0.000011  -0.000169  -0.000017  -0.000102  -0.000000
   35  S  1 YYX   0.000002  -0.000049   0.000009   0.000192  -0.000000
   36  S  1 YYZ  -0.000009   0.000146   0.000003   0.000161  -0.000000
   37  S  1 ZZX  -0.000001   0.000059  -0.000177  -0.000310  -0.000000
   38  S  1 ZZY  -0.000000   0.000000  -0.000000  -0.000000  -0.000001
   39  S  1 XYZ  -0.000000   0.000000  -0.000000  -0.000000   0.000100
   40  S  1 XX   -0.000000   0.000398   0.000320  -0.000367  -0.000000
   41  S  1 YY   -0.000001  -0.000525   0.000177  -0.000231  -0.000000
   42  S  1 ZZ    0.000001   0.000127  -0.000497   0.000599  -0.000000
   43  S  1 XY   -0.000000   0.000000  -0.000000  -0.000000  -0.000008
   44  S  1 XZ   -0.000006   0.000359   0.000276   0.000351  -0.000000
   45  S  1 YZ   -0.000000   0.000000  -0.000000  -0.000000   0.000667
   46  H  2  S    0.000063  -0.001000  -0.004986   0.000240  -0.000000
   47  H  2  S   -0.000390   0.005297  -0.014902   0.000277  -0.000000
   48  H  2  S    0.000016  -0.000628  -0.000185   0.000664  -0.000000
   49  H  2  X    0.000012   0.000804  -0.002714   0.000194  -0.000000
   50  H  2  Y   -0.000000   0.000000  -0.000000  -0.000000   0.000298
   51  H  2  Z   -0.000007  -0.000832   0.002703  -0.000066  -0.000000
   52  H  2  X   -0.000108   0.001949  -0.003707   0.001128  -0.000000
   53  H  2  Y   -0.000000   0.000000  -0.000000  -0.000000   0.000665
   54  H  2  Z    0.000101  -0.001779   0.003416   0.000614  -0.000000
   55  H  2 XX   -0.000000   0.000222  -0.000690   0.000196  -0.000000
   56  H  2 YY    0.000006  -0.000466   0.001322  -0.000143  -0.000000
   57  H  2 ZZ   -0.000005   0.000244  -0.000631  -0.000054  -0.000000
   58  H  2 XY   -0.000000   0.000000  -0.000000  -0.000000   0.000247
   59  H  2 XZ    0.000007  -0.000813   0.002293  -0.000052  -0.000000
   60  H  2 YZ   -0.000000   0.000000  -0.000000  -0.000000  -0.000245
   61  H  3  S    0.000011  -0.000236  -0.000058  -0.000061  -0.000000
   62  H  3  S   -0.000012   0.000027   0.000251   0.002419  -0.000000
   63  H  3  S    0.000006  -0.000066  -0.000498  -0.000219  -0.000000
   64  H  3  X   -0.000001  -0.000019  -0.000002  -0.000044  -0.000000
   65  H  3  Y   -0.000000   0.000000  -0.000000  -0.000000   0.000024
   66  H  3  Z    0.000000  -0.000026  -0.000005  -0.000059  -0.000000
   67  H  3  X    0.000015  -0.000145   0.000007  -0.001325  -0.000000
   68  H  3  Y   -0.000000   0.000000  -0.000000  -0.000000   0.000037
   69  H  3  Z    0.000009  -0.000109  -0.000236  -0.001074  -0.000000
   70  H  3 XX   -0.000005   0.000034  -0.000074   0.000124  -0.000000
   71  H  3 YY    0.000005  -0.000038  -0.000047  -0.000133  -0.000000
   72  H  3 ZZ   -0.000001   0.000004   0.000121   0.000009  -0.000000
   73  H  3 XY   -0.000000   0.000000  -0.000000  -0.000000  -0.000071
   74  H  3 XZ   -0.000009   0.000072   0.000071   0.000266  -0.000000
   75  H  3 YZ   -0.000000   0.000000  -0.000000  -0.000000  -0.000057

                      6          7          8          9         10
                    1.9937     1.6812     1.6228     1.5742     0.1040
                     A          A          A          A          A   
    1  S  1  S   -0.002788   0.002878  -0.000000  -0.000734  -0.001334
    2  S  1  S   -0.013105   0.025287  -0.000000  -0.010897  -0.016741
    3  S  1  S    0.510438   0.333698  -0.000000  -0.150370  -0.155210
    4  S  1  S    0.063903   0.040793  -0.000000  -0.027482  -0.031123
    5  S  1  S    0.178107   0.272044  -0.000000  -0.085777  -0.100602
    6  S  1  X    0.040784  -0.020323  -0.000000  -0.003078  -0.015981
    7  S  1  Y    0.000000  -0.000000   0.006605  -0.000000  -0.000000
    8  S  1  Z   -0.041002   0.019129  -0.000000   0.001119  -0.009253
    9  S  1  X   -0.099562   0.351221  -0.000000   0.233718  -0.442372
   10  S  1  Y    0.000000  -0.000000   0.624281  -0.000000  -0.000000
   11  S  1  Z    0.107784  -0.287970  -0.000000   0.395120  -0.325178
   12  S  1  X   -0.061592   0.145379  -0.000000   0.087117  -0.186277
   13  S  1  Y    0.000000  -0.000000   0.242813  -0.000000  -0.000000
   14  S  1  Z    0.060377  -0.126457  -0.000000   0.147583  -0.144306
   15  S  1  X   -0.013063   0.081319  -0.000000   0.083580  -0.127657
   16  S  1  Y    0.000000  -0.000000   0.277781  -0.000000  -0.000000
   17  S  1  Z    0.016372  -0.067564  -0.000000   0.148919  -0.092211
   18  S  1 XX    0.011846  -0.009083  -0.000000   0.004551   0.013772
   19  S  1 YY   -0.022530   0.022750  -0.000000  -0.013612  -0.064760
   20  S  1 ZZ    0.010684  -0.013668  -0.000000   0.009062   0.050988
   21  S  1 XY    0.000000  -0.000000  -0.004696  -0.000000  -0.000000
   22  S  1 XZ   -0.036287   0.054299  -0.000000   0.015011   0.050925
   23  S  1 YZ    0.000000  -0.000000   0.010829  -0.000000  -0.000000
   24  S  1 XX    0.004574  -0.002911  -0.000000   0.009848   0.021333
   25  S  1 YY   -0.012872   0.019689  -0.000000  -0.023740  -0.103862
   26  S  1 ZZ    0.008297  -0.016778  -0.000000   0.013892   0.082529
   27  S  1 XY    0.000000  -0.000000   0.001712  -0.000000  -0.000000
   28  S  1 XZ   -0.021609   0.053993  -0.000000   0.023137   0.066033
   29  S  1 YZ    0.000000  -0.000000   0.019851  -0.000000  -0.000000
   30  S  1 XXX   0.001036   0.000810  -0.000000  -0.001406  -0.003072
   31  S  1 YYY   0.000000  -0.000000  -0.003428  -0.000000  -0.000000
   32  S  1 ZZZ  -0.001472  -0.001495  -0.000000   0.000179   0.001487
   33  S  1 XXY   0.000000  -0.000000   0.003579  -0.000000  -0.000000
   34  S  1 XXZ   0.007832  -0.005994  -0.000000   0.007469   0.008978
   35  S  1 YYX   0.004426  -0.010298  -0.000000  -0.003862  -0.009669
   36  S  1 YYZ  -0.005857   0.007999  -0.000000  -0.007709  -0.010973
   37  S  1 ZZX  -0.005816   0.009211  -0.000000   0.005748   0.013790
   38  S  1 ZZY   0.000000  -0.000000   0.001020  -0.000000  -0.000000
   39  S  1 XYZ   0.000000  -0.000000   0.003159  -0.000000  -0.000000
   40  S  1 XX    0.003379  -0.002809  -0.000000   0.000419   0.003889
   41  S  1 YY   -0.006654   0.006344  -0.000000  -0.003014  -0.010323
   42  S  1 ZZ    0.003275  -0.003534  -0.000000   0.002595   0.006434
   43  S  1 XY    0.000000  -0.000000  -0.001400  -0.000000  -0.000000
   44  S  1 XZ   -0.011436   0.013685  -0.000000   0.002995   0.007413
   45  S  1 YZ    0.000000  -0.000000   0.002942  -0.000000  -0.000000
   46  H  2  S    0.213035  -0.159494  -0.000000   0.008694  -0.008658
   47  H  2  S    0.164265  -0.126995  -0.000000  -0.000636  -0.000855
   48  H  2  S   -0.005351  -0.031741  -0.000000  -0.002695  -0.005978
   49  H  2  X    0.021970  -0.011810  -0.000000   0.007272  -0.007785
   50  H  2  Y    0.000000  -0.000000   0.014474  -0.000000  -0.000000
   51  H  2  Z   -0.021719   0.013075  -0.000000   0.006790  -0.008311
   52  H  2  X    0.010456   0.009244  -0.000000   0.008882  -0.010513
   53  H  2  Y    0.000000  -0.000000   0.024279  -0.000000  -0.000000
   54  H  2  Z   -0.011137  -0.006508  -0.000000   0.016260  -0.011970
   55  H  2 XX    0.002552  -0.001253  -0.000000   0.003285  -0.005553
   56  H  2 YY   -0.005087   0.003201  -0.000000  -0.000035   0.001790
   57  H  2 ZZ    0.002535  -0.001948  -0.000000  -0.003250   0.003763
   58  H  2 XY    0.000000  -0.000000   0.003375  -0.000000  -0.000000
   59  H  2 XZ   -0.008021   0.004811  -0.000000   0.000036  -0.001550
   60  H  2 YZ    0.000000  -0.000000  -0.003574  -0.000000  -0.000000
   61  H  3  S    0.018406   0.053323  -0.000000   0.144850   0.227835
   62  H  3  S    0.030782   0.102441  -0.000000   0.311119   0.574306
   63  H  3  S   -0.000919   0.022748  -0.000000   0.094224   0.139848
   64  H  3  X   -0.002125  -0.002188  -0.000000  -0.004541  -0.007345
   65  H  3  Y    0.000000  -0.000000   0.001523  -0.000000  -0.000000
   66  H  3  Z   -0.001431  -0.003411  -0.000000  -0.003908  -0.006275
   67  H  3  X   -0.006567  -0.008895  -0.000000  -0.032154  -0.067225
   68  H  3  Y    0.000000  -0.000000   0.014327  -0.000000  -0.000000
   69  H  3  Z   -0.005130  -0.015532  -0.000000  -0.023137  -0.048600
   70  H  3 XX    0.000222  -0.000038  -0.000000   0.001641   0.005095
   71  H  3 YY   -0.000382  -0.001251  -0.000000  -0.001787  -0.006233
   72  H  3 ZZ    0.000160   0.001289  -0.000000   0.000146   0.001138
   73  H  3 XY    0.000000  -0.000000  -0.001666  -0.000000  -0.000000
   74  H  3 XZ    0.000791   0.002211  -0.000000   0.002520   0.009590
   75  H  3 YZ    0.000000  -0.000000  -0.001489  -0.000000  -0.000000

                     11
                    0.0241
                     A   
    1  S  1  S    0.009983
    2  S  1  S    0.063349
    3  S  1  S    0.126933
    4  S  1  S   -0.031357
    5  S  1  S    0.177383
    6  S  1  X   -0.038175
    7  S  1  Y   -0.000000
    8  S  1  Z    0.039740
    9  S  1  X   -0.272083
   10  S  1  Y   -0.000000
   11  S  1  Z    0.197384
   12  S  1  X   -0.094612
   13  S  1  Y   -0.000000
   14  S  1  Z    0.052398
   15  S  1  X   -0.063464
   16  S  1  Y   -0.000000
   17  S  1  Z    0.088532
   18  S  1 XX   -0.195165
   19  S  1 YY    0.390499
   20  S  1 ZZ   -0.195335
   21  S  1 XY   -0.000000
   22  S  1 XZ    0.172955
   23  S  1 YZ   -0.000000
   24  S  1 XX   -0.234628
   25  S  1 YY    0.465291
   26  S  1 ZZ   -0.230663
   27  S  1 XY   -0.000000
   28  S  1 XZ    0.154565
   29  S  1 YZ   -0.000000
   30  S  1 XXX  -0.008064
   31  S  1 YYY  -0.000000
   32  S  1 ZZZ   0.010134
   33  S  1 XXY  -0.000000
   34  S  1 XXZ  -0.019972
   35  S  1 YYX  -0.003151
   36  S  1 YYZ   0.006376
   37  S  1 ZZX   0.013970
   38  S  1 ZZY  -0.000000
   39  S  1 XYZ  -0.000000
   40  S  1 XX   -0.022627
   41  S  1 YY    0.046173
   42  S  1 ZZ   -0.023547
   43  S  1 XY   -0.000000
   44  S  1 XZ    0.021620
   45  S  1 YZ   -0.000000
   46  H  2  S   -0.185537
   47  H  2  S   -0.133042
   48  H  2  S   -0.056012
   49  H  2  X   -0.005249
   50  H  2  Y   -0.000000
   51  H  2  Z   -0.000586
   52  H  2  X   -0.007923
   53  H  2  Y   -0.000000
   54  H  2  Z   -0.005698
   55  H  2 XX   -0.001828
   56  H  2 YY   -0.000585
   57  H  2 ZZ    0.002413
   58  H  2 XY   -0.000000
   59  H  2 XZ    0.003210
   60  H  2 YZ   -0.000000
   61  H  3  S    0.025231
   62  H  3  S    0.052352
   63  H  3  S   -0.028547
   64  H  3  X   -0.003210
   65  H  3  Y   -0.000000
   66  H  3  Z   -0.001953
   67  H  3  X   -0.019577
   68  H  3  Y   -0.000000
   69  H  3  Z   -0.009501
   70  H  3 XX    0.002385
   71  H  3 YY   -0.002334
   72  H  3 ZZ   -0.000051
   73  H  3 XY   -0.000000
   74  H  3 XZ    0.003598
   75  H  3 YZ   -0.000000

          ------------------------
          MCSCF OPTIMIZED ORBITALS
          ------------------------

                      1          2          3          4          5
                  -92.3301    -9.3481    -7.0351    -7.0253    -7.0238
                     A          A          A          A          A   
    1  S  1  S    1.000138  -0.000897   0.000945  -0.000205  -0.000000
    2  S  1  S    0.000332   0.944191   0.010958  -0.003338  -0.000000
    3  S  1  S    0.000485  -0.013278   0.007350   0.000023  -0.000000
    4  S  1  S   -0.000711   0.069133   0.002071   0.000991  -0.000000
    5  S  1  S    0.000029  -0.000960   0.004021  -0.001462  -0.000000
    6  S  1  X   -0.000052  -0.000715   0.698191   0.667960  -0.000000
    7  S  1  Y   -0.000000   0.000000  -0.000000  -0.000000   0.970326
    8  S  1  Z    0.000128   0.003317  -0.667103   0.700015  -0.000000
    9  S  1  X   -0.000187   0.004025  -0.005671  -0.002699  -0.000000
   10  S  1  Y   -0.000000   0.000000  -0.000000  -0.000000  -0.001027
   11  S  1  Z    0.000243  -0.004852   0.005019  -0.002025  -0.000000
   12  S  1  X   -0.000021   0.001535   0.044043   0.045438  -0.000000
   13  S  1  Y   -0.000000   0.000000  -0.000000  -0.000000   0.061047
   14  S  1  Z   -0.000026  -0.000381  -0.041205   0.046639  -0.000000
   15  S  1  X   -0.000013   0.000171   0.000846   0.001450  -0.000000
   16  S  1  Y   -0.000000   0.000000  -0.000000  -0.000000   0.001637
   17  S  1  Z    0.000003  -0.000110  -0.000215   0.001095  -0.000000
   18  S  1 XX    0.000013  -0.000196   0.000309  -0.000223  -0.000000
   19  S  1 YY   -0.000016   0.000395  -0.000410  -0.000171  -0.000000
   20  S  1 ZZ    0.000003  -0.000199   0.000101   0.000394  -0.000000
   21  S  1 XY   -0.000000   0.000000  -0.000000  -0.000000  -0.000016
   22  S  1 XZ   -0.000014   0.001076  -0.000716   0.000370  -0.000000
   23  S  1 YZ   -0.000000   0.000000  -0.000000  -0.000000   0.000168
   24  S  1 XX    0.000020  -0.000431   0.000332   0.000467  -0.000000
   25  S  1 YY   -0.000049   0.000941  -0.001076   0.000595  -0.000000
   26  S  1 ZZ    0.000028  -0.000510   0.000744  -0.001062  -0.000000
   27  S  1 XY   -0.000000   0.000000  -0.000000  -0.000000   0.000280
   28  S  1 XZ   -0.000065   0.000954  -0.001860  -0.001252  -0.000000
   29  S  1 YZ   -0.000000   0.000000  -0.000000  -0.000000  -0.000399
   30  S  1 XXX  -0.000001  -0.000008   0.000125   0.000088  -0.000000
   31  S  1 YYY  -0.000000   0.000000  -0.000000  -0.000000  -0.000033
   32  S  1 ZZZ  -0.000002   0.000017   0.000010  -0.000044  -0.000000
   33  S  1 XXY  -0.000000   0.000000  -0.000000  -0.000000   0.000046
   34  S  1 XXZ   0.000011  -0.000169  -0.000017  -0.000102  -0.000000
   35  S  1 YYX   0.000002  -0.000049   0.000009   0.000192  -0.000000
   36  S  1 YYZ  -0.000009   0.000146   0.000003   0.000161  -0.000000
   37  S  1 ZZX  -0.000001   0.000059  -0.000177  -0.000310  -0.000000
   38  S  1 ZZY  -0.000000   0.000000  -0.000000  -0.000000  -0.000001
   39  S  1 XYZ  -0.000000   0.000000  -0.000000  -0.000000   0.000100
   40  S  1 XX   -0.000000   0.000398   0.000320  -0.000367  -0.000000
   41  S  1 YY   -0.000001  -0.000525   0.000177  -0.000231  -0.000000
   42  S  1 ZZ    0.000001   0.000127  -0.000497   0.000599  -0.000000
   43  S  1 XY   -0.000000   0.000000  -0.000000  -0.000000  -0.000008
   44  S  1 XZ   -0.000006   0.000359   0.000276   0.000351  -0.000000
   45  S  1 YZ   -0.000000   0.000000  -0.000000  -0.000000   0.000667
   46  H  2  S    0.000063  -0.001000  -0.004986   0.000240  -0.000000
   47  H  2  S   -0.000390   0.005297  -0.014902   0.000277  -0.000000
   48  H  2  S    0.000016  -0.000628  -0.000185   0.000664  -0.000000
   49  H  2  X    0.000012   0.000804  -0.002714   0.000194  -0.000000
   50  H  2  Y   -0.000000   0.000000  -0.000000  -0.000000   0.000298
   51  H  2  Z   -0.000007  -0.000832   0.002703  -0.000066  -0.000000
   52  H  2  X   -0.000108   0.001949  -0.003707   0.001128  -0.000000
   53  H  2  Y   -0.000000   0.000000  -0.000000  -0.000000   0.000665
   54  H  2  Z    0.000101  -0.001779   0.003416   0.000614  -0.000000
   55  H  2 XX   -0.000000   0.000222  -0.000690   0.000196  -0.000000
   56  H  2 YY    0.000006  -0.000466   0.001322  -0.000143  -0.000000
   57  H  2 ZZ   -0.000005   0.000244  -0.000631  -0.000054  -0.000000
   58  H  2 XY   -0.000000   0.000000  -0.000000  -0.000000   0.000247
   59  H  2 XZ    0.000007  -0.000813   0.002293  -0.000052  -0.000000
   60  H  2 YZ   -0.000000   0.000000  -0.000000  -0.000000  -0.000245
   61  H  3  S    0.000011  -0.000236  -0.000058  -0.000061  -0.000000
   62  H  3  S   -0.000012   0.000027   0.000251   0.002419  -0.000000
   63  H  3  S    0.000006  -0.000066  -0.000498  -0.000219  -0.000000
   64  H  3  X   -0.000001  -0.000019  -0.000002  -0.000044  -0.000000
   65  H  3  Y   -0.000000   0.000000  -0.000000  -0.000000   0.000024
   66  H  3  Z    0.000000  -0.000026  -0.000005  -0.000059  -0.000000
   67  H  3  X    0.000015  -0.000145   0.000007  -0.001325  -0.000000
   68  H  3  Y   -0.000000   0.000000  -0.000000  -0.000000   0.000037
   69  H  3  Z    0.000009  -0.000109  -0.000236  -0.001074  -0.000000
   70  H  3 XX   -0.000005   0.000034  -0.000074   0.000124  -0.000000
   71  H  3 YY    0.000005  -0.000038  -0.000047  -0.000133  -0.000000
   72  H  3 ZZ   -0.000001   0.000004   0.000121   0.000009  -0.000000
   73  H  3 XY   -0.000000   0.000000  -0.000000  -0.000000  -0.000071
   74  H  3 XZ   -0.000009   0.000072   0.000071   0.000266  -0.000000
   75  H  3 YZ   -0.000000   0.000000  -0.000000  -0.000000  -0.000057

                      6          7          8          9         10
                    0.0000     0.0000     0.0000     0.0000     0.0000
                     A          A          A          A          A   
    1  S  1  S   -0.001829   0.003067  -0.002417   0.000000  -0.007034
    2  S  1  S   -0.006270   0.019145  -0.024045   0.000000  -0.051535
    3  S  1  S    0.559501  -0.010987  -0.261741   0.000000  -0.230089
    4  S  1  S    0.067901  -0.010060  -0.040111   0.000000  -0.009357
    5  S  1  S    0.239136   0.095512  -0.208839   0.000000  -0.199989
    6  S  1  X    0.030194  -0.032389   0.013389   0.000000   0.008765
    7  S  1  Y    0.000000   0.000000   0.000000   0.006605  -0.000000
    8  S  1  Z   -0.032594   0.029911  -0.014380   0.000000  -0.029688
    9  S  1  X    0.019088   0.403683  -0.046748   0.000000  -0.181186
   10  S  1  Y    0.000000   0.000000   0.000000   0.624281  -0.000000
   11  S  1  Z    0.033204  -0.005304   0.499629   0.000000  -0.376480
   12  S  1  X   -0.012467   0.168877  -0.028843   0.000000  -0.087550
   13  S  1  Y    0.000000   0.000000   0.000000   0.242813  -0.000000
   14  S  1  Z    0.023653  -0.023990   0.199611   0.000000  -0.146518
   15  S  1  X    0.015588   0.107244   0.013383   0.000000  -0.061875
   16  S  1  Y    0.000000   0.000000   0.000000   0.277781  -0.000000
   17  S  1  Z    0.005000   0.037232   0.161458   0.000000  -0.125708
   18  S  1 XX    0.009161  -0.017800   0.006277   0.000000   0.129287
   19  S  1 YY   -0.018606   0.034996  -0.019003   0.000000  -0.288280
   20  S  1 ZZ    0.009446  -0.017197   0.012725   0.000000   0.158994
   21  S  1 XY    0.000000   0.000000   0.000000  -0.004696  -0.000000
   22  S  1 XZ   -0.011137   0.070781  -0.020794   0.000000  -0.063640
   23  S  1 YZ    0.000000   0.000000   0.000000   0.010829  -0.000000
   24  S  1 XX    0.005355  -0.009668   0.005145   0.000000   0.159641
   25  S  1 YY   -0.014025   0.026594  -0.022753   0.000000  -0.365307
   26  S  1 ZZ    0.008671  -0.016926   0.017608   0.000000   0.205666
   27  S  1 XY    0.000000   0.000000   0.000000   0.001712  -0.000000
   28  S  1 XZ    0.004366   0.070001  -0.012859   0.000000  -0.041132
   29  S  1 YZ    0.000000   0.000000   0.000000   0.019851  -0.000000
   30  S  1 XXX   0.000862  -0.001091  -0.001678   0.000000   0.002407
   31  S  1 YYY   0.000000   0.000000   0.000000  -0.003428  -0.000000
   32  S  1 ZZZ  -0.001729   0.000073   0.001107   0.000000  -0.004904
   33  S  1 XXY   0.000000   0.000000   0.000000   0.003579  -0.000000
   34  S  1 XXZ   0.006782  -0.003302   0.010010   0.000000   0.019009
   35  S  1 YYX  -0.000248  -0.011655   0.003507   0.000000  -0.005881
   36  S  1 YYZ  -0.004462   0.003205  -0.011495   0.000000  -0.012430
   37  S  1 ZZX  -0.000909   0.013119  -0.001255   0.000000   0.002652
   38  S  1 ZZY   0.000000   0.000000   0.000000   0.001020  -0.000000
   39  S  1 XYZ   0.000000   0.000000   0.000000   0.003159  -0.000000
   40  S  1 XX    0.002504  -0.004010   0.001937   0.000000   0.016722
   41  S  1 YY   -0.005084   0.007200  -0.006017   0.000000  -0.036050
   42  S  1 ZZ    0.002580  -0.003190   0.004079   0.000000   0.019328
   43  S  1 XY    0.000000   0.000000   0.000000  -0.001400  -0.000000
   44  S  1 XZ   -0.005428   0.016824  -0.006626   0.000000  -0.006848
   45  S  1 YZ    0.000000   0.000000   0.000000   0.002942  -0.000000
   46  H  2  S    0.148025  -0.190702   0.122448   0.000000   0.097337
   47  H  2  S    0.112377  -0.153699   0.091290   0.000000   0.073538
   48  H  2  S   -0.016093  -0.026093   0.015154   0.000000   0.029942
   49  H  2  X    0.017097  -0.011892   0.015123   0.000000  -0.003864
   50  H  2  Y    0.000000   0.000000   0.000000   0.014474  -0.000000
   51  H  2  Z   -0.015855   0.020473  -0.004980   0.000000  -0.005227
   52  H  2  X    0.013138   0.007968   0.002364   0.000000  -0.004031
   53  H  2  Y    0.000000   0.000000   0.000000   0.024279  -0.000000
   54  H  2  Z   -0.011432   0.008067   0.015333   0.000000  -0.005248
   55  H  2 XX    0.002012  -0.000005   0.003556   0.000000  -0.003367
   56  H  2 YY   -0.003622   0.003985  -0.002519   0.000000   0.001991
   57  H  2 ZZ    0.001611  -0.003980  -0.001037   0.000000   0.001376
   58  H  2 XY    0.000000   0.000000   0.000000   0.003375  -0.000000
   59  H  2 XZ   -0.006043   0.006284  -0.003698   0.000000  -0.002835
   60  H  2 YZ    0.000000   0.000000   0.000000  -0.003574  -0.000000
   61  H  3  S    0.065582   0.126273   0.086471   0.000000   0.164800
   62  H  3  S    0.134081   0.267161   0.192582   0.000000   0.422890
   63  H  3  S    0.026101   0.075083   0.060992   0.000000   0.128720
   64  H  3  X   -0.003691  -0.003961  -0.002624   0.000000  -0.003772
   65  H  3  Y    0.000000   0.000000   0.000000   0.001523  -0.000000
   66  H  3  Z   -0.003294  -0.004608  -0.001276   0.000000  -0.003706
   67  H  3  X   -0.017004  -0.026206  -0.021655   0.000000  -0.041160
   68  H  3  Y    0.000000   0.000000   0.000000   0.014327  -0.000000
   69  H  3  Z   -0.015578  -0.025137  -0.010029   0.000000  -0.032475
   70  H  3 XX    0.000709   0.001129   0.001430   0.000000   0.002585
   71  H  3 YY   -0.001365  -0.002126  -0.000793   0.000000  -0.003496
   72  H  3 ZZ    0.000656   0.000998  -0.000637   0.000000   0.000911
   73  H  3 XY    0.000000   0.000000   0.000000  -0.001666  -0.000000
   74  H  3 XZ    0.002358   0.003276   0.000890   0.000000   0.005361
   75  H  3 YZ    0.000000   0.000000   0.000000  -0.001489  -0.000000

                     11         12         13         14         15
                    0.0000    -0.0396     0.0586     0.1395     0.1558
                     A          A          A          A          A   
    1  S  1  S   -0.007070  -0.006579  -0.004336   0.008762   0.007452
    2  S  1  S   -0.039792  -0.059514  -0.028672   0.065196   0.053123
    3  S  1  S    0.010197  -0.282552  -0.052153   0.219695   0.155434
    4  S  1  S    0.045240  -0.088233   0.015700   0.005604  -0.004652
    5  S  1  S   -0.068956  -2.655564  -0.293423   0.459941   0.174612
    6  S  1  X    0.039771   0.096582  -0.056964   0.051126   0.055240
    7  S  1  Y    0.000000   0.000000   0.000000  -0.000000  -0.000000
    8  S  1  Z   -0.025847  -0.095671  -0.028370  -0.211904  -0.188194
    9  S  1  X    0.509192   0.286711  -0.277066   0.167976   0.137873
   10  S  1  Y    0.000000   0.000000   0.000000  -0.000000  -0.000000
   11  S  1  Z    0.053555  -0.267043  -0.052324  -0.663502  -0.603640
   12  S  1  X    0.197476   0.047685  -0.033262   0.013597  -0.001342
   13  S  1  Y    0.000000   0.000000   0.000000  -0.000000  -0.000000
   14  S  1  Z    0.050404  -0.034874   0.005250  -0.026965  -0.024208
   15  S  1  X    0.135430   0.740797   0.291738  -0.656869  -0.128802
   16  S  1  Y    0.000000   0.000000   0.000000  -0.000000  -0.000000
   17  S  1  Z   -0.008260  -0.948551  -0.371633   1.163097   1.127007
   18  S  1 XX    0.146176  -0.015218  -0.006418  -0.077101   0.105277
   19  S  1 YY   -0.269920   0.027702   0.038508   0.003391   0.013217
   20  S  1 ZZ    0.123744  -0.012484  -0.032090   0.073710  -0.118494
   21  S  1 XY    0.000000   0.000000   0.000000  -0.000000  -0.000000
   22  S  1 XZ   -0.165472  -0.008529  -0.066902   0.002666  -0.009275
   23  S  1 YZ    0.000000   0.000000   0.000000  -0.000000  -0.000000
   24  S  1 XX    0.173198  -0.095738  -0.082295  -0.353230   0.449989
   25  S  1 YY   -0.305826   0.216956   0.255242  -0.099046  -0.055801
   26  S  1 ZZ    0.132627  -0.121218  -0.172947   0.452276  -0.394189
   27  S  1 XY    0.000000   0.000000   0.000000  -0.000000  -0.000000
   28  S  1 XZ   -0.159348   0.081196  -0.105507  -0.135047  -0.070238
   29  S  1 YZ    0.000000   0.000000   0.000000  -0.000000  -0.000000
   30  S  1 XXX   0.008223  -0.001586   0.001472   0.007017   0.006645
   31  S  1 YYY   0.000000   0.000000   0.000000  -0.000000  -0.000000
   32  S  1 ZZZ  -0.009004  -0.001729   0.002114   0.013427  -0.003020
   33  S  1 XXY   0.000000   0.000000   0.000000  -0.000000  -0.000000
   34  S  1 XXZ   0.010681  -0.010383  -0.015961  -0.011389   0.010169
   35  S  1 YYX   0.007822  -0.000357  -0.008755   0.002388  -0.003801
   36  S  1 YYZ   0.001399   0.012702   0.013125  -0.006625  -0.006117
   37  S  1 ZZX  -0.018855   0.002486   0.006780  -0.011802  -0.005115
   38  S  1 ZZY   0.000000   0.000000   0.000000  -0.000000  -0.000000
   39  S  1 XYZ   0.000000   0.000000   0.000000  -0.000000  -0.000000
   40  S  1 XX    0.015519  -0.005335  -0.001435  -0.027760   0.038682
   41  S  1 YY   -0.030309   0.009920   0.012369  -0.003180  -0.000040
   42  S  1 ZZ    0.014790  -0.004585  -0.010934   0.030940  -0.038641
   43  S  1 XY    0.000000   0.000000   0.000000  -0.000000  -0.000000
   44  S  1 XZ   -0.021122  -0.002884  -0.020870  -0.004261  -0.004562
   45  S  1 YZ    0.000000   0.000000   0.000000  -0.000000  -0.000000
   46  H  2  S    0.150499  -0.029354   0.054842  -0.015500   0.000847
   47  H  2  S    0.104013   0.520342   0.520249  -0.146037  -0.080302
   48  H  2  S    0.046373   3.158350  -0.700989  -0.969379  -0.247531
   49  H  2  X    0.009264  -0.018997   0.023514  -0.000421  -0.007362
   50  H  2  Y    0.000000   0.000000   0.000000  -0.000000  -0.000000
   51  H  2  Z    0.005961   0.016908  -0.019579   0.012802   0.008167
   52  H  2  X    0.013748   0.210445  -0.049825   0.060821  -0.074607
   53  H  2  Y    0.000000   0.000000   0.000000  -0.000000  -0.000000
   54  H  2  Z    0.012170  -0.164057  -0.000942  -0.050421  -0.169275
   55  H  2 XX    0.005003   0.005886  -0.000947   0.001521  -0.011843
   56  H  2 YY   -0.000603  -0.007630  -0.002730   0.001174   0.003769
   57  H  2 ZZ   -0.004400   0.001744   0.003677  -0.002695   0.008074
   58  H  2 XY    0.000000   0.000000   0.000000  -0.000000  -0.000000
   59  H  2 XZ   -0.001569  -0.009432  -0.004782   0.001071  -0.001085
   60  H  2 YZ    0.000000   0.000000   0.000000  -0.000000  -0.000000
   61  H  3  S   -0.147739  -0.018764  -0.005464  -0.023133   0.012913
   62  H  3  S   -0.368142  -0.184524  -0.621343  -0.447225  -0.107734
   63  H  3  S   -0.056225   0.336809   1.438252   0.628849  -0.144799
   64  H  3  X    0.006614   0.007587   0.009598   0.008204  -0.015479
   65  H  3  Y    0.000000   0.000000   0.000000  -0.000000  -0.000000
   66  H  3  Z    0.004969   0.004105   0.009635  -0.004608   0.007114
   67  H  3  X    0.054033  -0.040074   0.049425  -0.080784   0.186589
   68  H  3  Y    0.000000   0.000000   0.000000  -0.000000  -0.000000
   69  H  3  Z    0.035004  -0.006243  -0.006514   0.138937  -0.080011
   70  H  3 XX   -0.004887   0.001961   0.002388  -0.000791  -0.006083
   71  H  3 YY    0.005473  -0.000883  -0.002287  -0.003141   0.000580
   72  H  3 ZZ   -0.000586  -0.001077  -0.000101   0.003931   0.005502
   73  H  3 XY    0.000000   0.000000   0.000000  -0.000000  -0.000000
   74  H  3 XZ   -0.008424   0.001723   0.004121   0.004873   0.001058
   75  H  3 YZ    0.000000   0.000000   0.000000  -0.000000  -0.000000

                     16         17         18         19         20
                    0.1592     0.1771     0.1868     0.1935     0.3513
                     A          A          A          A          A   
    1  S  1  S   -0.000000  -0.011580   0.000000   0.000000   0.031619
    2  S  1  S   -0.000000  -0.079575   0.000000   0.000000   0.210838
    3  S  1  S   -0.000000  -0.164333   0.000000   0.000000   0.092400
    4  S  1  S   -0.000000  -0.005598   0.000000   0.000000   0.143151
    5  S  1  S   -0.000000  -0.308193   0.000000   0.000000   5.340145
    6  S  1  X   -0.000000  -0.207518   0.000000   0.000000  -0.450202
    7  S  1  Y   -0.268349   0.000000  -0.128484  -0.123368   0.000000
    8  S  1  Z   -0.000000  -0.087582   0.000000   0.000000   0.634869
    9  S  1  X   -0.000000  -0.640543   0.000000   0.000000  -0.853834
   10  S  1  Y   -0.901332   0.000000  -0.389966  -0.413710   0.000000
   11  S  1  Z   -0.000000  -0.334240   0.000000   0.000000   1.302816
   12  S  1  X   -0.000000  -0.037422   0.000000   0.000000  -0.002060
   13  S  1  Y   -0.049698   0.000000  -0.005146  -0.028621   0.000000
   14  S  1  Z   -0.000000  -0.037724   0.000000   0.000000  -0.033761
   15  S  1  X   -0.000000   2.102889   0.000000   0.000000  -1.836785
   16  S  1  Y    1.189091   0.000000   0.593121   0.429953   0.000000
   17  S  1  Z   -0.000000   0.450579   0.000000   0.000000   1.236650
   18  S  1 XX   -0.000000  -0.046093   0.000000   0.000000  -0.007857
   19  S  1 YY   -0.000000   0.041059   0.000000   0.000000  -0.001555
   20  S  1 ZZ   -0.000000   0.005034   0.000000   0.000000   0.009412
   21  S  1 XY    0.079503   0.000000  -0.084022  -0.114038   0.000000
   22  S  1 XZ   -0.000000  -0.072014   0.000000   0.000000  -0.242751
   23  S  1 YZ   -0.007944   0.000000  -0.120679   0.111780   0.000000
   24  S  1 XX   -0.000000  -0.259866   0.000000   0.000000   0.033955
   25  S  1 YY   -0.000000   0.086656   0.000000   0.000000  -0.188280
   26  S  1 ZZ   -0.000000   0.173211   0.000000   0.000000   0.154326
   27  S  1 XY    0.322720   0.000000  -0.457457  -0.559132   0.000000
   28  S  1 XZ   -0.000000   0.151520   0.000000   0.000000  -1.320209
   29  S  1 YZ    0.086146   0.000000  -0.558534   0.567129   0.000000
   30  S  1 XXX  -0.000000   0.008916   0.000000   0.000000   0.033508
   31  S  1 YYY  -0.004770   0.000000   0.005183  -0.012666   0.000000
   32  S  1 ZZZ  -0.000000   0.012786   0.000000   0.000000  -0.018133
   33  S  1 XXY   0.000695   0.000000   0.005438   0.003580   0.000000
   34  S  1 XXZ  -0.000000   0.001529   0.000000   0.000000   0.087345
   35  S  1 YYX  -0.000000  -0.028406   0.000000   0.000000   0.037887
   36  S  1 YYZ  -0.000000  -0.018684   0.000000   0.000000  -0.063017
   37  S  1 ZZX  -0.000000   0.016444   0.000000   0.000000  -0.082843
   38  S  1 ZZY   0.005705   0.000000  -0.012391   0.013414   0.000000
   39  S  1 XYZ  -0.000888   0.000000  -0.009285  -0.017815   0.000000
   40  S  1 XX   -0.000000  -0.014759   0.000000   0.000000  -0.011019
   41  S  1 YY   -0.000000   0.009554   0.000000   0.000000   0.019228
   42  S  1 ZZ   -0.000000   0.005205   0.000000   0.000000  -0.008210
   43  S  1 XY    0.027965   0.000000  -0.031693  -0.042107   0.000000
   44  S  1 XZ   -0.000000  -0.007139   0.000000   0.000000  -0.045827
   45  S  1 YZ    0.000990   0.000000  -0.042815   0.042255   0.000000
   46  H  2  S   -0.000000   0.022804   0.000000   0.000000   0.053483
   47  H  2  S   -0.000000   0.152672   0.000000   0.000000  -3.499679
   48  H  2  S   -0.000000   1.495261   0.000000   0.000000  -3.339497
   49  H  2  X   -0.000000   0.010016   0.000000   0.000000  -0.025435
   50  H  2  Y    0.003016   0.000000   0.002691   0.011298   0.000000
   51  H  2  Z   -0.000000   0.010768   0.000000   0.000000   0.023615
   52  H  2  X   -0.000000  -0.155195   0.000000   0.000000  -0.844298
   53  H  2  Y   -0.128898   0.000000  -0.050180   0.042473   0.000000
   54  H  2  Z   -0.000000  -0.065557   0.000000   0.000000   0.722688
   55  H  2 XX   -0.000000  -0.008802   0.000000   0.000000  -0.021026
   56  H  2 YY   -0.000000   0.007051   0.000000   0.000000   0.024753
   57  H  2 ZZ   -0.000000   0.001751   0.000000   0.000000  -0.003727
   58  H  2 XY   -0.004186   0.000000   0.000645   0.002361   0.000000
   59  H  2 XZ   -0.000000   0.001052   0.000000   0.000000   0.042626
   60  H  2 YZ    0.002550   0.000000   0.002780  -0.003610   0.000000
   61  H  3  S   -0.000000   0.056960   0.000000   0.000000   0.057784
   62  H  3  S   -0.000000   0.370433   0.000000   0.000000   0.555043
   63  H  3  S   -0.000000  -1.831346   0.000000   0.000000  -0.281023
   64  H  3  X   -0.000000  -0.015420   0.000000   0.000000  -0.006473
   65  H  3  Y   -0.007701   0.000000   0.018867   0.000613   0.000000
   66  H  3  Z   -0.000000  -0.018482   0.000000   0.000000  -0.002673
   67  H  3  X   -0.000000   0.140393   0.000000   0.000000   0.111736
   68  H  3  Y    0.133647   0.000000  -0.245118  -0.001107   0.000000
   69  H  3  Z   -0.000000   0.172036   0.000000   0.000000   0.088119
   70  H  3 XX   -0.000000  -0.004662   0.000000   0.000000  -0.008234
   71  H  3 YY   -0.000000   0.006201   0.000000   0.000000   0.000764
   72  H  3 ZZ   -0.000000  -0.001538   0.000000   0.000000   0.007470
   73  H  3 XY    0.003806   0.000000   0.003721  -0.001609   0.000000
   74  H  3 XZ   -0.000000  -0.010700   0.000000   0.000000   0.004315
   75  H  3 YZ    0.001720   0.000000   0.002043   0.004920   0.000000

                     21         22         23         24         25
                    0.3938     0.5913     0.6175     0.7594     0.8868
                     A          A          A          A          A   
    1  S  1  S    0.023321   0.002312  -0.000000  -0.019950  -0.000000
    2  S  1  S    0.161099   0.011387  -0.000000  -0.136239  -0.000000
    3  S  1  S   -0.021078   0.092057  -0.000000  -0.325809  -0.000000
    4  S  1  S    0.197424  -0.119396  -0.000000   0.169148  -0.000000
    5  S  1  S    6.914839  -0.787820  -0.000000  -1.334739  -0.000000
    6  S  1  X   -0.984720  -0.028494  -0.000000   0.410788  -0.000000
    7  S  1  Y   -0.000000   0.000000   0.112672  -0.000000  -0.559176
    8  S  1  Z    0.776608   0.069685  -0.000000  -0.290389  -0.000000
    9  S  1  X   -2.208638  -0.116423  -0.000000   1.100837  -0.000000
   10  S  1  Y   -0.000000   0.000000   0.243746  -0.000000  -1.312519
   11  S  1  Z    1.691273   0.208847  -0.000000  -0.794889  -0.000000
   12  S  1  X   -0.015257   0.059100  -0.000000  -0.021770  -0.000000
   13  S  1  Y   -0.000000   0.000000  -0.024122  -0.000000  -0.007011
   14  S  1  Z    0.030306  -0.058755  -0.000000   0.029166  -0.000000
   15  S  1  X   -0.788099   0.374234  -0.000000   0.513952  -0.000000
   16  S  1  Y   -0.000000   0.000000  -0.331329  -0.000000  -0.294345
   17  S  1  Z    1.994176  -0.411012  -0.000000  -0.645519  -0.000000
   18  S  1 XX    0.098287   0.096658  -0.000000   0.032013  -0.000000
   19  S  1 YY   -0.150053   0.015926  -0.000000   0.069601  -0.000000
   20  S  1 ZZ    0.051766  -0.112584  -0.000000  -0.101613  -0.000000
   21  S  1 XY   -0.000000   0.000000  -0.107989  -0.000000   0.016958
   22  S  1 XZ   -0.084228   0.017096  -0.000000   0.098723  -0.000000
   23  S  1 YZ   -0.000000   0.000000  -0.085169  -0.000000  -0.076475
   24  S  1 XX    0.578798   0.317500  -0.000000  -0.349954  -0.000000
   25  S  1 YY   -0.948380  -0.108246  -0.000000   0.591321  -0.000000
   26  S  1 ZZ    0.369583  -0.209254  -0.000000  -0.241368  -0.000000
   27  S  1 XY   -0.000000   0.000000  -0.437456  -0.000000   1.059207
   28  S  1 XZ   -0.706182  -0.327006  -0.000000   1.141884  -0.000000
   29  S  1 YZ   -0.000000   0.000000  -0.216525  -0.000000  -1.107062
   30  S  1 XXX   0.007623  -0.038779  -0.000000  -0.036548  -0.000000
   31  S  1 YYY  -0.000000   0.000000  -0.063908  -0.000000   0.078336
   32  S  1 ZZZ  -0.023095   0.028381  -0.000000   0.055009  -0.000000
   33  S  1 XXY  -0.000000   0.000000   0.051152  -0.000000  -0.047686
   34  S  1 XXZ   0.087285  -0.011787  -0.000000  -0.099136  -0.000000
   35  S  1 YYX   0.074036   0.027201  -0.000000  -0.028569  -0.000000
   36  S  1 YYZ  -0.056300  -0.026289  -0.000000   0.025334  -0.000000
   37  S  1 ZZX  -0.084262   0.024826  -0.000000   0.077604  -0.000000
   38  S  1 ZZY  -0.000000   0.000000   0.034589  -0.000000  -0.057413
   39  S  1 XYZ  -0.000000   0.000000   0.034385  -0.000000   0.137389
   40  S  1 XX    0.016883   0.030053  -0.000000   0.008208  -0.000000
   41  S  1 YY   -0.023620  -0.001854  -0.000000   0.014119  -0.000000
   42  S  1 ZZ    0.006737  -0.028199  -0.000000  -0.022327  -0.000000
   43  S  1 XY   -0.000000   0.000000  -0.028927  -0.000000  -0.007321
   44  S  1 XZ    0.024715  -0.010107  -0.000000   0.027307  -0.000000
   45  S  1 YZ   -0.000000   0.000000  -0.026882  -0.000000  -0.003513
   46  H  2  S   -0.036564  -0.042764  -0.000000   0.020819  -0.000000
   47  H  2  S   -4.956057  -0.201132  -0.000000   3.114852  -0.000000
   48  H  2  S   -3.331363   0.855864  -0.000000  -0.434120  -0.000000
   49  H  2  X   -0.045489  -0.008713  -0.000000   0.050445  -0.000000
   50  H  2  Y   -0.000000   0.000000   0.003081  -0.000000  -0.057024
   51  H  2  Z    0.050981  -0.004475  -0.000000  -0.049103  -0.000000
   52  H  2  X   -0.981788   0.299247  -0.000000  -0.787428  -0.000000
   53  H  2  Y   -0.000000   0.000000  -0.219562  -0.000000   2.411396
   54  H  2  Z    1.044530  -0.470036  -0.000000   0.362482  -0.000000
   55  H  2 XX   -0.015401   0.015322  -0.000000  -0.032459  -0.000000
   56  H  2 YY    0.043033  -0.034467  -0.000000   0.035589  -0.000000
   57  H  2 ZZ   -0.027632   0.019144  -0.000000  -0.003129  -0.000000
   58  H  2 XY   -0.000000   0.000000  -0.013327  -0.000000   0.108577
   59  H  2 XZ    0.068131  -0.041949  -0.000000   0.067109  -0.000000
   60  H  2 YZ   -0.000000   0.000000   0.010909  -0.000000  -0.108673
   61  H  3  S   -0.040793   0.001013  -0.000000   0.004389  -0.000000
   62  H  3  S   -0.878390   0.147301  -0.000000  -0.218293  -0.000000
   63  H  3  S   -0.106117  -0.079614  -0.000000   0.321470  -0.000000
   64  H  3  X   -0.001307   0.051776  -0.000000   0.024470  -0.000000
   65  H  3  Y   -0.000000   0.000000  -0.083025  -0.000000  -0.013903
   66  H  3  Z   -0.002174  -0.053489  -0.000000  -0.026856  -0.000000
   67  H  3  X   -0.020376  -0.680774  -0.000000  -0.351540  -0.000000
   68  H  3  Y   -0.000000   0.000000   1.066146  -0.000000   0.180020
   69  H  3  Z    0.005896   0.678862  -0.000000   0.332234  -0.000000
   70  H  3 XX   -0.010733   0.001670  -0.000000  -0.010629  -0.000000
   71  H  3 YY    0.010531  -0.004631  -0.000000   0.008499  -0.000000
   72  H  3 ZZ    0.000202   0.002960  -0.000000   0.002129  -0.000000
   73  H  3 XY   -0.000000   0.000000   0.001635  -0.000000   0.006587
   74  H  3 XZ   -0.013995   0.006795  -0.000000  -0.006269  -0.000000
   75  H  3 YZ   -0.000000   0.000000   0.002215  -0.000000  -0.000997

                     26         27         28         29         30
                    0.8905     0.9847     1.1808     1.3626     1.3864
                     A          A          A          A          A   
    1  S  1  S   -0.003651   0.004097  -0.044425   0.000000  -0.004669
    2  S  1  S   -0.017177   0.042201  -0.267660   0.000000  -0.030490
    3  S  1  S    0.008784   0.125856  -0.382288   0.000000  -0.048120
    4  S  1  S    0.040600   0.067185   0.133919   0.000000   0.007874
    5  S  1  S    0.036308   2.550712  -1.132521   0.000000  -0.511542
    6  S  1  X   -0.267730  -0.029379   0.381104   0.000000   0.037866
    7  S  1  Y   -0.000000   0.000000   0.000000   0.038092   0.000000
    8  S  1  Z   -0.323876   0.534573  -0.332907   0.000000  -0.089027
    9  S  1  X   -0.566340   0.090957   0.783150   0.000000   0.120537
   10  S  1  Y   -0.000000   0.000000   0.000000   0.042417   0.000000
   11  S  1  Z   -0.734109   1.379974  -0.644949   0.000000  -0.200737
   12  S  1  X   -0.005336   0.052598  -0.261804   0.000000   0.027969
   13  S  1  Y   -0.000000   0.000000   0.000000  -0.067115   0.000000
   14  S  1  Z    0.016781   0.112855   0.265230   0.000000   0.026855
   15  S  1  X    0.274219   0.671695   0.622937   0.000000   0.232272
   16  S  1  Y   -0.000000   0.000000   0.000000  -0.066699   0.000000
   17  S  1  Z   -0.240943   0.996054  -0.132838   0.000000  -0.167159
   18  S  1 XX    0.057919  -0.042723   0.406453   0.000000  -0.904177
   19  S  1 YY    0.078833  -0.054402  -0.593385   0.000000  -0.086496
   20  S  1 ZZ   -0.136751   0.097125   0.186932   0.000000   0.990672
   21  S  1 XY   -0.000000   0.000000   0.000000   0.807349   0.000000
   22  S  1 XZ   -0.038258   0.058715  -0.606745   0.000000  -0.067887
   23  S  1 YZ   -0.000000   0.000000   0.000000  -0.787941   0.000000
   24  S  1 XX    1.286291  -0.375834  -0.512326   0.000000   0.718528
   25  S  1 YY   -0.109082  -0.655092   0.798429   0.000000   0.190231
   26  S  1 ZZ   -1.177209   1.030927  -0.286103   0.000000  -0.908759
   27  S  1 XY   -0.000000   0.000000   0.000000  -0.584623   0.000000
   28  S  1 XZ    0.477187   0.455935   1.255128   0.000000   0.227746
   29  S  1 YZ   -0.000000   0.000000   0.000000   0.563040   0.000000
   30  S  1 XXX  -0.115800   0.030535   0.031682   0.000000  -0.146535
   31  S  1 YYY  -0.000000   0.000000   0.000000  -0.018889   0.000000
   32  S  1 ZZZ  -0.052606   0.034973  -0.048300   0.000000   0.171482
   33  S  1 XXY  -0.000000   0.000000   0.000000   0.008588   0.000000
   34  S  1 XXZ   0.068936  -0.092953   0.162441   0.000000  -0.078471
   35  S  1 YYX   0.016053   0.022292   0.179378   0.000000   0.128792
   36  S  1 YYZ   0.001642   0.046032  -0.097639   0.000000  -0.151596
   37  S  1 ZZX   0.139308  -0.063259  -0.221884   0.000000   0.067806
   38  S  1 ZZY  -0.000000   0.000000   0.000000   0.016754   0.000000
   39  S  1 XYZ  -0.000000   0.000000   0.000000  -0.000544   0.000000
   40  S  1 XX    0.004393   0.004988   0.043255   0.000000  -0.111850
   41  S  1 YY    0.006120  -0.018960  -0.057890   0.000000  -0.008412
   42  S  1 ZZ   -0.010513   0.013972   0.014635   0.000000   0.120261
   43  S  1 XY   -0.000000   0.000000   0.000000   0.100868   0.000000
   44  S  1 XZ    0.006098   0.037549  -0.045718   0.000000  -0.005979
   45  S  1 YZ   -0.000000   0.000000   0.000000  -0.098743   0.000000
   46  H  2  S   -0.000666  -0.039364   0.327202   0.000000   0.033579
   47  H  2  S    0.398807  -1.507726   0.800140   0.000000   0.464356
   48  H  2  S    0.230521  -0.325454   1.213204   0.000000   0.270854
   49  H  2  X   -0.029107   0.033118  -0.111847   0.000000   0.045849
   50  H  2  Y   -0.000000   0.000000   0.000000  -0.093087   0.000000
   51  H  2  Z   -0.037755   0.051003   0.107413   0.000000   0.064404
   52  H  2  X    1.356733  -1.321025   0.068839   0.000000  -0.011327
   53  H  2  Y   -0.000000   0.000000   0.000000   0.149406   0.000000
   54  H  2  Z    1.614198  -0.591570  -0.230941   0.000000  -0.048709
   55  H  2 XX    0.109981  -0.084101  -0.031835   0.000000  -0.002983
   56  H  2 YY    0.016917   0.031889   0.053475   0.000000   0.001710
   57  H  2 ZZ   -0.126898   0.052212  -0.021640   0.000000   0.001274
   58  H  2 XY   -0.000000   0.000000   0.000000   0.001901   0.000000
   59  H  2 XZ    0.013952   0.021988   0.104568   0.000000   0.010147
   60  H  2 YZ   -0.000000   0.000000   0.000000  -0.001998   0.000000
   61  H  3  S   -0.026406  -0.083719   0.020491   0.000000   0.020835
   62  H  3  S    0.148709  -0.477072  -0.201462   0.000000  -0.041655
   63  H  3  S   -0.577471  -1.188779  -0.335892   0.000000   0.004403
   64  H  3  X   -0.004081  -0.085838   0.000042   0.000000   0.009022
   65  H  3  Y   -0.000000   0.000000   0.000000   0.000009   0.000000
   66  H  3  Z   -0.045874  -0.056830  -0.013919   0.000000  -0.003717
   67  H  3  X    0.300180   1.251381   0.117194   0.000000  -0.187107
   68  H  3  Y   -0.000000   0.000000   0.000000   0.012063   0.000000
   69  H  3  Z    0.700839   0.961154   0.267473   0.000000   0.162672
   70  H  3 XX    0.021535  -0.015979  -0.040112   0.000000   0.014216
   71  H  3 YY   -0.012497   0.014937   0.029872   0.000000   0.006770
   72  H  3 ZZ   -0.009038   0.001043   0.010240   0.000000  -0.020986
   73  H  3 XY   -0.000000   0.000000   0.000000  -0.013667   0.000000
   74  H  3 XZ   -0.017937   0.004502  -0.013355   0.000000  -0.006869
   75  H  3 YZ   -0.000000   0.000000   0.000000   0.009813   0.000000

                     31         32         33         34         35
                    1.4142     1.4153     1.5658     1.6174     1.6561
                     A          A          A          A          A   
    1  S  1  S   -0.028811  -0.000000  -0.000000  -0.038381  -0.000000
    2  S  1  S   -0.206481  -0.000000  -0.000000  -0.279725  -0.000000
    3  S  1  S   -0.356674  -0.000000  -0.000000  -0.460230  -0.000000
    4  S  1  S   -0.112711  -0.000000  -0.000000  -0.188357  -0.000000
    5  S  1  S    0.177861  -0.000000  -0.000000  -0.668294  -0.000000
    6  S  1  X    0.193115  -0.000000  -0.000000   0.169141  -0.000000
    7  S  1  Y    0.000000  -0.005522  -0.004637  -0.000000  -0.039513
    8  S  1  Z   -0.096557  -0.000000  -0.000000  -0.167408  -0.000000
    9  S  1  X    0.416347  -0.000000  -0.000000   0.414040  -0.000000
   10  S  1  Y    0.000000  -0.027428  -0.007051  -0.000000  -0.039153
   11  S  1  Z   -0.161017  -0.000000  -0.000000  -0.433460  -0.000000
   12  S  1  X   -0.071529  -0.000000  -0.000000   0.075009  -0.000000
   13  S  1  Y    0.000000  -0.014422   0.003787  -0.000000   0.063988
[...]
      112    0.026989    0.026989  2+02-+
       92    0.026788    0.026788  +22020
      156    0.024108    0.024108  22+002
       48   -0.022254   -0.022254  +2-2+0
       85   -0.020535    0.020535  2+-02+
      123    0.020337    0.020337  +20220

 ---------------------------------------
      - DIABATIC STATES IN CMO -        
 ---------------------------------------

 State #    1  Energy =    -398.375780245

      Det      Coef        Coefp    Occupancy (Ignoring core)
      ---      ----        ----    --------- --------- -----
        1   -0.970909    0.970909  222+00
       63    0.170212    0.170212  220+20
       51   -0.056204    0.056204  +22-0+
        3   -0.053712   -0.053712  22-++0
       78   -0.049670   -0.049670  2+-+20
       64    0.048933   -0.048933  2-++20
       17    0.048494   -0.048494  22+-+0
       36   -0.046630   -0.046630  2+2-0+
      173    0.045961    0.045961  202+02
       79    0.038969    0.038969  202+20
       32    0.033347    0.033347  2+2-+0
        8    0.031996   -0.031996  2-2+0+
      181    0.028194    0.028194  +22+0-
       21    0.028048   -0.028048  22+-0+
        9    0.028010    0.028010  -22+0+
        4   -0.027445    0.027445  2-2++0

 State #    2  Energy =    -398.265066830

      Det      Coef        Coefp    Occupancy (Ignoring core)
      ---      ----        ----    --------- --------- -----
       16    0.810475    0.810475  22+200
       31   -0.524628    0.524628  2+2200
      108    0.124748   -0.124748  2+0220
        6    0.092297   -0.092297  22200+
       33    0.088110   -0.088110  2+-2+0
       19   -0.076170   -0.076170  2-+2+0
      109   -0.073425    0.073425  20+220
      156   -0.069971   -0.069971  22+002
      171    0.047472   -0.047472  2+2002
       34   -0.044690    0.044690  2022+0
        2   -0.043364    0.043364  2220+0
       18    0.041291   -0.041291  2202+0
       53    0.034472   -0.034472  +-220+
       48    0.031745    0.031745  +2-2+0
       38   -0.030308    0.030308  20220+
      152    0.029733    0.029733  22+0+-
       20   -0.028234    0.028234  -2+2+0
      203   -0.025546    0.025546  20+202
       23    0.022762    0.022762  2-+20+
      110   -0.020303   -0.020303  -++220

 State #    3  Energy =    -398.208593252

      Det      Coef        Coefp    Occupancy (Ignoring core)
      ---      ----        ----    --------- --------- -----
       31   -0.752356    0.752356  2+2200
       16   -0.527569   -0.527569  22+200
       18    0.278710   -0.278710  2202+0
        2   -0.169720    0.169720  2220+0
      108    0.113883   -0.113883  2+0220
       33   -0.072217    0.072217  2+-2+0
        6    0.066958   -0.066958  22200+
       62    0.063390    0.063390  22+020
      171    0.061783   -0.061783  2+2002
       34   -0.045358    0.045358  2022+0
       19    0.042289    0.042289  2-+2+0
      156    0.040391    0.040391  22+002
       48   -0.036063   -0.036063  +2-2+0
      203    0.034284   -0.034284  20+202
       53    0.033386   -0.033386  +-220+
       77    0.031390   -0.031390  2+2020
      106    0.029928    0.029928  2++2-0
      121    0.028665   -0.028665  +2+2-0
       49    0.022279   -0.022279  +-22+0
       35   -0.020927   -0.020927  -+22+0
      160   -0.020841   -0.020841  2200+2

 ---------------------------------------
    -DIABATIC STATES IN PROTOTYPES-     
 ---------------------------------------

     STATE:    1
 Group Ref#    Coefficients
     1    1    0.960054
     2    2   -0.000000
     3    3    0.000000

WEIGHT OF LISTED PROTOTYPES:   92.17%

     STATE:    2
 Group Ref#    Coefficients
     1    1    0.000000
     2    2    0.957688
     3    3   -0.027132

WEIGHT OF LISTED PROTOTYPES:   91.79%

     STATE:    3
 Group Ref#    Coefficients
     1    1   -0.000000
     2    2   -0.027132
     3    3    0.862442

WEIGHT OF LISTED PROTOTYPES:   74.45%

 --------------------------------------------------
 IN DIRECT MAX. DIABATIZATION FOR GMC-QDPT

 DIRECT MAXIMIZATION (DM) WITHOUT TRUNCATING ADIABATS
 EXPANSIONS INTO THE REFERENCE CONFIGURATION SPACE
 --------------------------------------------------

 -------------------------------------------
 - DM DIABT PT HAMILTONIAN MATRIX ELEMENTS -
 -------------------------------------------
                                            
 --- DIABATIC ENERGIES (DIAGONAL ELEMENT) ---       HARTREE            EV
 STATE #  1'S GMC-PT-LEVEL DIABATIC ENERGY=    -398.375780245       0.000000000
 STATE #  2'S GMC-PT-LEVEL DIABATIC ENERGY=    -398.264965805       3.015414485
 STATE #  3'S GMC-PT-LEVEL DIABATIC ENERGY=    -398.208694277       4.546640769

 --- DIABATIC COUPLINGS (OFF DIAGONAL ELEMENTS)---  HATREE            EV
 STATE #  1 &  2'S GMC-PT-LEVEL COUPLING  =       0.000000000       0.000000000
 STATE #  1 &  3'S GMC-PT-LEVEL COUPLING  =       0.000000000       0.000000000
 STATE #  2 &  3'S GMC-PT-LEVEL COUPLING  =       0.032362045       0.880616097

 ---------------------------------------
     - ROTATION TO DIABATIC STATES -    
 ---------------------------------------
 ROWS=ADIABATIC, COLUMNS=DIABATIC STATES

             1           2           3

    1   -1.0000000  -0.0000000  -0.0000000
    2   -0.0000000  -0.9099754   0.4146623
    3   -0.0000000   0.4146623   0.9099754

 ---------------------------------------
          - DIABATIC STATES -           
 ---------------------------------------

 State #    1  Energy =    -398.375780245

      Det      Coef        Coefp    Occupancy (Ignoring core)
      ---      ----        ----    --------- --------- -----
        1   -0.940305    0.940305  222+00
      181   -0.173822   -0.173822  +22+0-
        9    0.166833    0.166833  -22+0+
      173    0.083344    0.083344  202+02
      157    0.077743    0.077743  220+02
       47    0.070698   -0.070698  +22-+0
        8    0.052227   -0.052227  2-2+0+
      154   -0.052101    0.052101  2-+++-
       91   -0.049898   -0.049898  +22+-0
      168    0.049613    0.049613  2+-++-
       82   -0.045007    0.045007  2+-+-+
       21   -0.043789    0.043789  22+-0+
      172   -0.043192   -0.043192  2+-+02
       68    0.042596    0.042596  2-++-+
      158    0.042297   -0.042297  2-++02
       63    0.041646    0.041646  220+20
      169   -0.037467   -0.037467  202++-
       36   -0.036998   -0.036998  2+2-0+
       79    0.036632    0.036632  202+20
       83    0.036125   -0.036125  202+-+
       61    0.035272    0.035272  22++-0
      151    0.030963    0.030963  22++0-
      174    0.027553   -0.027553  -+2+02
       32    0.024551    0.024551  2+2-+0
       95    0.024507    0.024507  022+20
       17   -0.024017    0.024017  22+-+0
      153   -0.023316   -0.023316  220++-
      188   -0.022622   -0.022622  +-2+02
       84    0.021050    0.021050  -+2+-+
        5   -0.020799   -0.020799  -22++0

 State #    2  Energy =    -398.264965805

      Det      Coef        Coefp    Occupancy (Ignoring core)
      ---      ----        ----    --------- --------- -----
       16    0.933515    0.933515  22+200
       24   -0.157641    0.157641  -2+20+
      211    0.157461   -0.157461  +2+20-
        2   -0.100248    0.100248  2220+0
       18    0.089729   -0.089729  2202+0
      203   -0.085546    0.085546  20+202
       46   -0.084064   -0.084064  +22200
       62   -0.080887   -0.080887  22+020
       53   -0.065509    0.065509  +-220+
       20   -0.048699    0.048699  -2+2+0
      112    0.046688    0.046688  2+02-+
       38    0.044518   -0.044518  20220+
       39    0.042600    0.042600  -+220+
       48    0.040121    0.040121  +2-2+0
       34   -0.039789    0.039789  2022+0
       23   -0.038447   -0.038447  2-+20+
      113   -0.036439   -0.036439  20+2-+
      199    0.035394   -0.035394  20+2+-
      198   -0.034651    0.034651  2+02+-
      109   -0.034491    0.034491  20+220
      204   -0.033347   -0.033347  -++202
      218    0.032681   -0.032681  +-+202
      196    0.032661    0.032661  2++20-
      202    0.030619   -0.030619  2+0202
       22   -0.029053    0.029053  22020+
       31    0.028877   -0.028877  2+2200
       54    0.027914   -0.027914  02220+
      214   -0.026532    0.026532  +-+2+-
      152   -0.024645   -0.024645  22+0+-
      200    0.024330    0.024330  -++2+-
      226    0.022909    0.022909  ++220-
      128    0.022527    0.022527  +-+2-+
       66    0.020674   -0.020674  22+0-+
      114   -0.020667    0.020667  -++2-+
       12    0.020172    0.020172  -220++

 State #    3  Energy =    -398.208694277

      Det      Coef        Coefp    Occupancy (Ignoring core)
      ---      ----        ----    --------- --------- -----
       31   -0.825846    0.825846  2+2200
       46   -0.326986   -0.326986  +22200
       37    0.157643   -0.157643  2+-20+
      226   -0.147915   -0.147915  ++220-
        2   -0.143973    0.143973  2220+0
       39    0.136990    0.136990  -+220+
       23   -0.121335   -0.121335  2-+20+
       22   -0.110488    0.110488  22020+
       52    0.103623    0.103623  +2-20+
        6    0.101345   -0.101345  22200+
       18    0.084187   -0.084187  2202+0
       33   -0.076443    0.076443  2+-2+0
       38   -0.076095    0.076095  20220+
       19    0.075693    0.075693  2-+2+0
       77    0.075306   -0.075306  2+2020
       54    0.073785   -0.073785  02220+
      202    0.068626   -0.068626  2+0202
       34    0.060480   -0.060480  2022+0
       24   -0.052019    0.052019  -2+20+
      211   -0.051603    0.051603  +2+20-
      171    0.044702   -0.044702  2+2002
       49   -0.043148    0.043148  +-22+0
       16   -0.042165   -0.042165  22+200
      108    0.041592   -0.041592  2+0220
      113   -0.041107   -0.041107  20+2-+
       35    0.038112    0.038112  -+22+0
      186    0.037640    0.037640  +22002
      196   -0.036308   -0.036308  2++20-
      199    0.031735   -0.031735  20+2+-
      203   -0.031535    0.031535  20+202
       12    0.031315    0.031315  -220++
      182   -0.027914   -0.027914  +220+-
      112    0.026916    0.026916  2+02-+
       92    0.026779    0.026779  +22020
      156    0.024118    0.024118  22+002
       48   -0.022316   -0.022316  +2-2+0
       85   -0.020526    0.020526  2+-02+
      123    0.020329    0.020329  +20220

 ---------------------------------------
      - DIABATIC STATES IN CMO -        
 ---------------------------------------

 State #    1  Energy =    -398.375780245

      Det      Coef        Coefp    Occupancy (Ignoring core)
      ---      ----        ----    --------- --------- -----
        1   -0.970909    0.970909  222+00
       63    0.170212    0.170212  220+20
       51   -0.056204    0.056204  +22-0+
        3   -0.053712   -0.053712  22-++0
       78   -0.049670   -0.049670  2+-+20
       64    0.048933   -0.048933  2-++20
       17    0.048494   -0.048494  22+-+0
       36   -0.046630   -0.046630  2+2-0+
      173    0.045961    0.045961  202+02
       79    0.038969    0.038969  202+20
       32    0.033347    0.033347  2+2-+0
        8    0.031996   -0.031996  2-2+0+
      181    0.028194    0.028194  +22+0-
       21    0.028048   -0.028048  22+-0+
        9    0.028010    0.028010  -22+0+
        4   -0.027445    0.027445  2-2++0

 State #    2  Energy =    -398.264965805

      Det      Coef        Coefp    Occupancy (Ignoring core)
      ---      ----        ----    --------- --------- -----
       16    0.809649    0.809649  22+200
       31   -0.525803    0.525803  2+2200
      108    0.124926   -0.124926  2+0220
        6    0.092402   -0.092402  22200+
       33    0.087997   -0.087997  2+-2+0
       19   -0.076104   -0.076104  2-+2+0
      109   -0.073431    0.073431  20+220
      156   -0.069908   -0.069908  22+002
      171    0.047568   -0.047568  2+2002
       34   -0.044761    0.044761  2022+0
        2   -0.043629    0.043629  2220+0
       18    0.041726   -0.041726  2202+0
       53    0.034524   -0.034524  +-220+
       48    0.031688    0.031688  +2-2+0
       38   -0.030333    0.030333  20220+
      152    0.029718    0.029718  22+0+-
       20   -0.028222    0.028222  -2+2+0
      203   -0.025492    0.025492  20+202
       23    0.022782    0.022782  2-+20+
      110   -0.020288   -0.020288  -++220

 State #    3  Energy =    -398.208694277

      Det      Coef        Coefp    Occupancy (Ignoring core)
      ---      ----        ----    --------- --------- -----
       31   -0.751536    0.751536  2+2200
       16   -0.528835   -0.528835  22+200
       18    0.278645   -0.278645  2202+0
        2   -0.169652    0.169652  2220+0
      108    0.113688   -0.113688  2+0220
       33   -0.072354    0.072354  2+-2+0
        6    0.066813   -0.066813  22200+
       62    0.063393    0.063393  22+020
      171    0.061709   -0.061709  2+2002
       34   -0.045288    0.045288  2022+0
       19    0.042408    0.042408  2-+2+0
      156    0.040500    0.040500  22+002
       48   -0.036113   -0.036113  +2-2+0
      203    0.034324   -0.034324  20+202
       53    0.033332   -0.033332  +-220+
       77    0.031372   -0.031372  2+2020
      106    0.029947    0.029947  2++2-0
      121    0.028671   -0.028671  +2+2-0
       49    0.022256   -0.022256  +-22+0
       35   -0.020919   -0.020919  -+22+0
      160   -0.020834   -0.020834  2200+2

 ---------------------------------------
    -DIABATIC STATES IN PROTOTYPES-     
 ---------------------------------------

     STATE:    1
 Group Ref#    Coefficients
     1    1    0.960054
     2    2   -0.000000
     3    3    0.000000

WEIGHT OF LISTED PROTOTYPES:   92.17%

     STATE:    2
 Group Ref#    Coefficients
     1    1    0.000000
     2    2    0.957644
     3    3   -0.025784

WEIGHT OF LISTED PROTOTYPES:   91.77%

     STATE:    3
 Group Ref#    Coefficients
     1    1   -0.000000
     2    2   -0.028629
     3    3    0.862483

WEIGHT OF LISTED PROTOTYPES:   74.47%

     DIRECT MAX. DIABATIZATION FINISHED    
 CPU     0: STEP CPU TIME=     0.03 TOTAL CPU TIME=         62.1 (      1.0 MIN)
 TOTAL WALL CLOCK TIME=         62.2 SECONDS, CPU UTILIZATION IS    99.92%

DIABATS FOR SPIN-ORBIT CALCULATION ARE READY

TRANSITION DIPOLES BETWEEN ADIABATS (in A.U.):

STATE PAIR      X         Y         Z
    1    1  0.673789 -0.000000  1.939577
    2    1  0.000000 -0.178831 -0.000000
    2    2  0.470083 -0.000000  1.965784
    3    1  0.000000  0.305586  0.000000
    3    2 -0.081730  0.000000 -0.317765
    3    3  0.429712 -0.000000  1.963669


TRANSITION DIPOLES BETWEEN DIABATS (in A.U.):

STATE PAIR      X         Y         Z
    1    1  0.673789 -0.000000  1.939577
    2    1  0.000000 -0.289127 -0.000000
    2    2  0.524700 -0.000000  2.204576
    3    1 -0.000000 -0.204374 -0.000000
    3    2  0.038624 -0.000000  0.208442
    3    3  0.375096  0.000000  1.724877

TRANSITION DIPOLES BETWEEN DIRECT MAX. DIABATS (in A.U.):

STATE PAIR      X         Y         Z
    1    1  0.673789 -0.000000  1.939577
    2    1  0.000000 -0.289446 -0.000000
    2    2  0.524820 -0.000000  2.205226
    3    1 -0.000000 -0.203921 -0.000000
    3    2  0.038390 -0.000000  0.207691
    3    3  0.374975  0.000000  1.724227
 No $TRANST Group Found.
 Quit without doing spin-orbit coupling
 ..... DONE WITH MP2 ENERGY .....
 CPU     0: STEP CPU TIME=     0.01 TOTAL CPU TIME=         62.1 (      1.0 MIN)
 TOTAL WALL CLOCK TIME=         62.2 SECONDS, CPU UTILIZATION IS    99.94%
            100000000  WORDS OF DYNAMIC MEMORY USED
 EXECUTION OF GAMESS TERMINATED NORMALLY Tue Nov  1 12:15:35 2022
 DDI: 5098536 bytes (4.9 MB / 0 MWords) used by master data server.

 ----------------------------------------
 CPU timing information for all processes
 ========================================
 0: 61.662 + 0.484 = 62.146
 ----------------------------------------
Note: The following floating-point exceptions are signalling: IEEE_DENORMAL
 ddikick.x: exited gracefully.
unset echo
----- accounting info -----
Files used on the master node io003 were:
-rwxr-xr-x 1 bjb2chen nooijen   91666 Nov  1 12:14 /scratch/bjb2chen/h2scat_cct_gmcpt_6o7e_3st_diab_as0.6.F05*
-rw-r--r-- 1 bjb2chen nooijen 1817856 Nov  1 12:15 /scratch/bjb2chen/h2scat_cct_gmcpt_6o7e_3st_diab_as0.6.F09
-rw-r--r-- 1 bjb2chen nooijen 2290400 Nov  1 12:15 /scratch/bjb2chen/h2scat_cct_gmcpt_6o7e_3st_diab_as0.6.F10
-rw-r--r-- 1 bjb2chen nooijen  328432 Nov  1 12:15 /scratch/bjb2chen/h2scat_cct_gmcpt_6o7e_3st_diab_as0.6.F13
-rw-r--r-- 1 bjb2chen nooijen  180552 Nov  1 12:15 /scratch/bjb2chen/h2scat_cct_gmcpt_6o7e_3st_diab_as0.6.F15
-rw-r--r-- 1 bjb2chen nooijen       0 Nov  1 12:14 /scratch/bjb2chen/h2scat_cct_gmcpt_6o7e_3st_diab_as0.6.F16
-rw-r--r-- 1 bjb2chen nooijen    2408 Nov  1 12:15 /scratch/bjb2chen/h2scat_cct_gmcpt_6o7e_3st_diab_as0.6.F70
-rw-r--r-- 1 bjb2chen nooijen    2408 Nov  1 12:15 /scratch/bjb2chen/h2scat_cct_gmcpt_6o7e_3st_diab_as0.6.F71
-rw-r--r-- 1 bjb2chen nooijen    4808 Nov  1 12:15 /scratch/bjb2chen/h2scat_cct_gmcpt_6o7e_3st_diab_as0.6.F72
-rw-r--r-- 1 bjb2chen nooijen    4808 Nov  1 12:15 /scratch/bjb2chen/h2scat_cct_gmcpt_6o7e_3st_diab_as0.6.F73
-rw-r--r-- 1 bjb2chen nooijen  369624 Nov  1 12:15 /scratch/bjb2chen/h2scat_cct_gmcpt_6o7e_3st_diab_as0.6.F74
-rw-r--r-- 1 bjb2chen nooijen  720024 Nov  1 12:15 /scratch/bjb2chen/h2scat_cct_gmcpt_6o7e_3st_diab_as0.6.F75
-rw-r--r-- 1 bjb2chen nooijen   14448 Nov  1 12:15 /scratch/bjb2chen/h2scat_cct_gmcpt_6o7e_3st_diab_as0.6.F76
-rw-r--r-- 1 bjb2chen nooijen       0 Nov  1 12:14 /scratch/bjb2chen/h2scat_cct_gmcpt_6o7e_3st_diab_as0.6.F77
-rw-r--r-- 1 bjb2chen nooijen    4232 Nov  1 12:15 /scratch/bjb2chen/h2scat_cct_gmcpt_6o7e_3st_diab_as0.6.F78
-rw-r--r-- 1 bjb2chen nooijen    9608 Nov  1 12:15 /scratch/bjb2chen/h2scat_cct_gmcpt_6o7e_3st_diab_as0.6.F79
-rw-r--r-- 1 bjb2chen nooijen     104 Nov  1 12:15 /scratch/bjb2chen/h2scat_cct_gmcpt_6o7e_3st_diab_as0.6.F80
-rw-r--r-- 1 bjb2chen nooijen   69712 Nov  1 12:15 /scratch/bjb2chen/h2scat_cct_gmcpt_6o7e_3st_diab_as0.6.F81
-rw-r--r-- 1 bjb2chen nooijen     136 Nov  1 12:15 /scratch/bjb2chen/h2scat_cct_gmcpt_6o7e_3st_diab_as0.6.F82
-rw-r--r-- 1 bjb2chen nooijen   10376 Nov  1 12:15 /scratch/bjb2chen/h2scat_cct_gmcpt_6o7e_3st_diab_as0.6.F83
-rw-r--r-- 1 bjb2chen nooijen  105616 Nov  1 12:15 /scratch/bjb2chen/h2scat_cct_gmcpt_6o7e_3st_diab_as0.6.F84
-rw-r--r-- 1 bjb2chen nooijen  646032 Nov  1 12:15 /scratch/bjb2chen/h2scat_cct_gmcpt_6o7e_3st_diab_as0.6.F85
-rw-r--r-- 1 bjb2chen nooijen 5205568 Nov  1 12:15 /scratch/bjb2chen/h2scat_cct_gmcpt_6o7e_3st_diab_as0.6.F86
-rw-r--r-- 1 bjb2chen nooijen     656 Nov  1 12:15 /scratch/bjb2chen/h2scat_cct_gmcpt_6o7e_3st_diab_as0.6.F87
-rw-r--r-- 1 bjb2chen nooijen    9840 Nov  1 12:15 /scratch/bjb2chen/h2scat_cct_gmcpt_6o7e_3st_diab_as0.6.F88
-rw-r--r-- 1 bjb2chen nooijen     536 Nov  1 12:15 /scratch/bjb2chen/h2scat_cct_gmcpt_6o7e_3st_diab_as0.6.F89
-rw-r--r-- 1 bjb2chen nooijen       0 Nov  1 12:14 /scratch/bjb2chen/h2scat_cct_gmcpt_6o7e_3st_diab_as0.6.F90
-rw-r--r-- 1 bjb2chen nooijen    5560 Nov  1 12:15 /scratch/bjb2chen/h2scat_cct_gmcpt_6o7e_3st_diab_as0.6.F91
-rw-r--r-- 1 bjb2chen nooijen    7128 Nov  1 12:15 /scratch/bjb2chen/h2scat_cct_gmcpt_6o7e_3st_diab_as0.6.F92
-rw-r--r-- 1 bjb2chen nooijen    5560 Nov  1 12:15 /scratch/bjb2chen/h2scat_cct_gmcpt_6o7e_3st_diab_as0.6.F93
-rw-r--r-- 1 bjb2chen nooijen    3880 Nov  1 12:15 /scratch/bjb2chen/h2scat_cct_gmcpt_6o7e_3st_diab_as0.6.F94
-rw-r--r-- 1 bjb2chen nooijen    1640 Nov  1 12:15 /scratch/bjb2chen/h2scat_cct_gmcpt_6o7e_3st_diab_as0.6.F95
-rw-r--r-- 1 bjb2chen nooijen    7240 Nov  1 12:15 /scratch/bjb2chen/h2scat_cct_gmcpt_6o7e_3st_diab_as0.6.F96
-rw-r--r-- 1 bjb2chen nooijen     872 Nov  1 12:15 /scratch/bjb2chen/h2scat_cct_gmcpt_6o7e_3st_diab_as0.6.F97
-rw-r--r-- 1 bjb2chen nooijen    2408 Nov  1 12:15 /scratch/bjb2chen/h2scat_cct_gmcpt_6o7e_3st_diab_as0.6.F98
-rw-r--r-- 1 bjb2chen nooijen    6024 Nov  1 12:15 /scratch/bjb2chen/h2scat_cct_gmcpt_6o7e_3st_diab_as0.6.F99
ls: No match.
ls: No match.
ls: No match.
Tue 01 Nov 2022 12:15:38 PM EDT
0.111u 0.015s 1:05.34 0.1%	0+0k 184+360io 0pf+0w
